/*--------------------------------*- C++ -*----------------------------------*\
  =========                 |
  \\      /  F ield         | OpenFOAM: The Open Source CFD Toolbox
   \\    /   O peration     | Website:  https://openfoam.org
    \\  /    A nd           | Version:  10
     \\/     M anipulation  |
\*---------------------------------------------------------------------------*/
FoamFile
{
    format      ascii;
    class       volScalarField;
    location    "0";
    object      k;
}
// * * * * * * * * * * * * * * * * * * * * * * * * * * * * * * * * * * * * * //

dimensions      [0 2 -2 0 0 0 0];

internalField   uniform 0.1;

boundaryField
{
    inlet
    {
        type            fixedValue;
        value           nonuniform List<scalar> 0();
    }
    outlet
    {
        type            zeroGradient;
    }
    walls
    {
        type            kqRWallFunction;
        value           nonuniform List<scalar> 0();
    }
    drone
    {
        type            kqRWallFunction;
        value           uniform 0.1;
    }
    blades
    {
        type            kqRWallFunction;
        value           nonuniform List<scalar> 0();
    }
    procBoundary4to1
    {
        type            processor;
        value           uniform 0.1;
    }
    procBoundary4to2
    {
        type            processor;
        value           uniform 0.1;
    }
    procBoundary4to3
    {
        type            processor;
        value           uniform 0.1;
    }
    procBoundary4to5
    {
        type            processor;
        value           uniform 0.1;
    }
}


// ************************************************************************* //
