/*--------------------------------*- C++ -*----------------------------------*\
  =========                 |
  \\      /  F ield         | OpenFOAM: The Open Source CFD Toolbox
   \\    /   O peration     | Website:  https://openfoam.org
    \\  /    A nd           | Version:  10
     \\/     M anipulation  |
\*---------------------------------------------------------------------------*/
FoamFile
{
    format      ascii;
    class       volVectorField;
    location    "0";
    object      wallShearStress;
}
// * * * * * * * * * * * * * * * * * * * * * * * * * * * * * * * * * * * * * //

dimensions      [0 2 -2 0 0 0 0];

internalField   uniform (0 0 0);

boundaryField
{
    inlet
    {
        type            calculated;
        value           nonuniform List<vector> 0();
    }
    outlet
    {
        type            calculated;
        value           nonuniform List<vector> 0();
    }
    walls
    {
        type            calculated;
        value           nonuniform List<vector> 0();
    }
    drone
    {
        type            calculated;
        value           nonuniform List<vector> 
23835
(
(-0.4174 -0.141953 -0.00967104)
(-0.449706 -0.050986 -0.0674044)
(-0.438097 -0.0957107 0.00860752)
(-0.451301 -0.162068 0.0826333)
(-0.426822 -0.0916115 0.056138)
(-0.321251 -0.00418767 -0.046275)
(-0.397766 0.0124134 -0.00496499)
(-0.452567 -0.0271362 0.0618993)
(-0.344192 0.162248 0.0939886)
(-0.382662 0.0159424 -0.00463075)
(-0.349672 -0.000156183 -0.00833166)
(-0.497139 -0.138844 -0.0783104)
(-0.459903 -0.029787 0.0371503)
(-0.376473 -0.0227599 0.0308329)
(-0.514125 -0.00484655 -0.0352178)
(-0.376112 0.0862414 0.0978663)
(-0.366921 0.0262888 0.0386936)
(-0.323679 0.0141015 -0.033101)
(-0.43868 -0.138547 -0.0240081)
(-0.432646 -0.0777076 0.0014971)
(-0.489633 -0.134105 -0.086183)
(-0.427762 -0.073159 0.0048607)
(-0.331792 -0.00492131 -0.0381131)
(-0.414087 -0.102354 0.126903)
(-0.408471 -0.041537 -0.000944922)
(-0.437091 0.0542479 -0.0375052)
(-0.397195 0.010369 -0.00380175)
(-0.313152 -0.000289069 -0.0488591)
(-0.322165 -0.00290001 -0.0453678)
(-0.320295 -0.0184771 -0.00120981)
(-0.324992 0.0231975 -0.0171462)
(-0.299869 -0.00288393 0.0218642)
(-0.2894 0.000147333 -0.00564964)
(-0.290604 -0.000147801 0.00567358)
(-0.301629 -0.000397482 -0.00585396)
(-0.402014 0.000530789 0.00781405)
(-0.32406 -0.00488366 -0.041165)
(-0.278475 0.000380632 -0.00539967)
(-0.28346 0.000387606 -0.00549628)
(-0.289751 -0.00039706 0.00561721)
(-0.28882 -0.000396008 0.00560087)
(-0.26988 0.000369648 -0.00523521)
(-0.288903 -0.000396138 0.00559981)
(-0.405977 -0.000753656 -0.00765039)
(-0.269962 0.000355703 0.00524263)
(-0.351339 0.00268186 0.0229044)
(-0.30435 0.00282573 0.0250717)
(-0.401356 0.00300586 0.0259975)
(-0.301306 -0.0125043 0.0285068)
(-0.396658 -0.00355034 0.0257115)
(-0.322062 -0.00323087 0.0251567)
(-0.32922 -0.00294787 0.0213445)
(-0.288938 0.00014708 -0.00564063)
(-0.289727 0.000147519 -0.00565625)
(-0.291244 -0.000148141 0.00568573)
(-0.290862 -0.000147945 0.00567823)
(-0.288388 0.000146778 -0.0056292)
(-0.293606 -0.000386743 -0.00569671)
(-0.290974 -0.000147958 0.00568047)
(-0.295352 -0.00038916 -0.00573175)
(-0.401866 0.000530641 0.007813)
(-0.330312 0.000435832 0.00641811)
(-0.296707 -0.000390881 -0.00575417)
(-0.270823 0.00174068 0.0178674)
(-0.305893 -0.00459678 -0.0388835)
(-0.278389 0.00211111 0.0183035)
(-0.386709 -0.0159524 0.0367285)
(-0.344991 -0.00944139 0.00505776)
(-0.303552 0.00212573 -0.0199831)
(-0.291478 0.000400707 -0.00566638)
(-0.306903 -0.00144696 0.0204572)
(-0.296055 -0.000405817 0.00575356)
(-0.280945 -0.00132456 0.0187296)
(-0.292406 0.000148716 -0.0057066)
(-0.290205 -0.00014622 -0.00566347)
(-0.293904 -0.000147938 -0.00573779)
(-0.291294 0.00014673 0.00568598)
(-0.271226 0.000468585 0.0181542)
(-0.29224 0.00132086 0.0194525)
(-0.358286 0.00232128 0.0236836)
(-0.353715 -0.00262612 -0.0232354)
(-0.322428 0.00275385 0.0253382)
(-0.357824 -0.00187248 -0.0450807)
(-0.392538 0.0127739 0.000585156)
(-0.391264 0.0134354 -0.00203126)
(-0.3635 -0.00544488 0.0261123)
(-0.386947 -0.00211695 0.0223057)
(-0.359865 -0.00791159 0.0448194)
(-0.409409 -0.000834099 0.0106563)
(-0.412456 -0.000843493 0.0107253)
(-0.368491 0.00403486 -0.0526306)
(-0.334374 0.00354031 -0.0478547)
(-0.465161 -0.000331226 0.012094)
(-0.413557 0.000289045 0.0107553)
(-0.382914 -0.00151169 -0.054824)
(-0.441442 0.00170694 -0.0632138)
(-0.41128 0.000794485 0.0107063)
(-0.402846 0.00197101 0.0129104)
(-0.353744 -0.00398852 -0.0504649)
(-0.38443 0.00261242 0.0229279)
(-0.360754 0.00448245 0.0277394)
(-0.346201 0.00547571 0.0381698)
(-0.275559 0.00419104 0.0187413)
(-0.404534 0.000885825 0.00365799)
(-0.275288 -0.00422466 -0.0160494)
(-0.348225 -0.00255036 -0.00984849)
(-0.390346 0.0205396 0.050128)
(-0.327261 0.000667766 -0.00628841)
(-0.301684 0.000618159 -0.0058129)
(-0.308657 0.000631498 -0.00594395)
(-0.291434 0.000398349 -0.00564974)
(-0.292403 0.000399677 -0.00566858)
(-0.289313 -0.00204584 0.0190884)
(-0.293406 -0.00206459 0.0194105)
(-0.284797 -0.002003 0.01884)
(-0.29182 0.00039888 -0.00565726)
(-0.278082 0.000381227 -0.00539584)
(-0.26955 0.000219378 -0.00546329)
(-0.283912 -0.0003741 -0.0055192)
(-0.287661 -0.000378813 -0.00559262)
(-0.286958 -0.000537312 -0.0055367)
(-0.289075 -0.000541327 -0.00556262)
(-0.289387 -0.00038127 -0.00562564)
(-0.291232 0.000547957 0.00562401)
(-0.295898 -0.000554322 -0.00571388)
(-0.290152 -0.000543704 -0.00559894)
(-0.300748 -0.000563353 -0.00580707)
(-0.292603 0.000550157 0.00565094)
(-0.304768 -0.000571007 -0.00588637)
(-0.29178 0.000548531 0.00563424)
(-0.305386 0.00196269 0.020151)
(-0.294372 0.00189203 0.0194215)
(-0.271174 -0.00204343 -0.0178996)
(-0.331401 -0.00253222 -0.021621)
(-0.324913 -0.00248363 -0.0211959)
(-0.399024 -0.00304481 -0.0260371)
(-0.300658 0.00228858 0.0197849)
(-0.270481 0.00202831 0.0176468)
(-0.331615 0.00232184 -0.0218289)
(-0.295814 0.00207026 -0.019472)
(-0.309122 0.00216399 -0.0203488)
(-0.327465 -0.00154841 0.0218034)
(-0.300233 -0.00142241 0.0199722)
(-0.462174 0.000423527 -0.0263036)
(-0.464949 0.000603618 -0.0233433)
(-0.290908 0.000399489 -0.00565162)
(-0.290228 0.000211127 -0.00565341)
(-0.301081 -0.000412378 0.00584709)
(-0.290729 0.000210621 -0.00566418)
(-0.292713 0.000148846 -0.00571282)
(-0.294768 -0.000209647 0.00573692)
(-0.293533 0.000149243 -0.00572805)
(-0.294939 -0.00139443 0.0196396)
(-0.29291 -0.000209795 0.00570633)
(-0.27801 -0.000697215 0.0186394)
(-0.468429 -0.0011572 -0.0199651)
(-0.463556 -0.000423106 -0.0249551)
(-0.289591 -0.000145911 -0.0056515)
(-0.289773 -0.00014599 -0.00565544)
(-0.293188 0.000149088 -0.00572208)
(-0.291688 0.000146817 0.00569286)
(-0.295472 -0.000148758 -0.00576862)
(-0.290374 -0.000146273 -0.0056664)
(-0.295901 -0.000148994 -0.00577738)
(-0.291893 0.0001469 0.00569609)
(-0.300296 -0.000151179 -0.00586246)
(-0.291473 0.00014671 0.00568871)
(-0.289897 0.00131067 0.0192943)
(-0.275035 0.000475047 0.0184086)
(-0.279781 0.00126546 0.0186248)
(-0.469586 -0.00116382 -0.0188193)
(-0.278832 -0.00180048 -0.0184812)
(-0.326664 -0.00212423 -0.0215494)
(-0.271271 -0.00175215 -0.0179853)
(-0.403343 -0.00265462 -0.0265984)
(-0.285031 -0.00184071 -0.0188907)
(-0.28382 0.00128256 0.0188918)
(-0.310009 0.00202568 0.0205464)
(-0.408214 0.00262546 0.0269408)
(-0.328976 0.00213137 0.0217523)
(-0.365333 -0.00346403 -0.0401954)
(-0.370491 -0.00465715 -0.0425061)
(-0.395171 -0.0034442 -0.0428429)
(-0.44983 -0.00170056 -0.027504)
(-0.397289 0.00304575 0.0260877)
(-0.353068 0.00942435 -0.0232553)
(-0.301266 -0.00157574 -0.0379556)
(-0.370405 -0.00352098 -0.0370925)
(-0.302216 -0.00158321 -0.0380757)
(-0.39008 0.0129742 -0.00575634)
(-0.379955 0.00968513 -0.0254574)
(-0.450039 -0.00180717 -0.0276289)
(-0.386126 0.012856 -0.00492192)
(-0.369956 0.00907268 -0.0252267)
(-0.358128 -0.0013412 -0.0447542)
(-0.384279 -0.00405016 0.0232417)
(-0.386452 -0.00343064 0.022752)
(-0.409254 -0.00134399 0.0106872)
(-0.468619 -0.000921534 0.0121907)
(-0.410329 -0.00135474 0.0107062)
(-0.470743 -0.000680622 0.0120282)
(-0.47452 -0.000674797 0.0091985)
(-0.547884 -0.0014463 0.00934761)
(-0.474751 -0.000333409 0.00888873)
(-0.476999 0.000236671 0.00822104)
(-0.473639 0.000640745 0.0100663)
(-0.47539 0.000228676 0.00833197)
(-0.473109 0.000639938 0.0104504)
(-0.439826 0.00129288 0.0114596)
(-0.408732 0.00201087 0.0115028)
(-0.417272 0.0012217 0.0108721)
(-0.406652 0.00201365 0.0129447)
(-0.384725 0.00330653 0.0229531)
(-0.353653 0.00617956 0.0300862)
(-0.383161 0.00328935 0.0228809)
(-0.390626 0.0127055 0.00124981)
(-0.387636 0.0133214 -0.00200843)
(-0.383188 0.0247658 -0.00232806)
(-0.391954 0.0131017 0.00204798)
(-0.345588 0.00499561 0.0328182)
(-0.341133 0.013006 0.044688)
(-0.389894 0.0130262 0.00204084)
(-0.385952 0.0186042 -0.00166268)
(-0.356481 0.0318981 -0.00501611)
(-0.411803 0.0252229 0.0529431)
(-0.35852 0.0320339 -0.00420958)
(-0.355001 0.0217791 0.0455316)
(-0.302582 0.0126612 0.0160714)
(-0.389523 -0.00296469 -0.00487633)
(-0.298539 -0.00703393 0.0395103)
(-0.346917 -0.00684241 0.0434593)
(-0.392681 -0.00625867 0.0297711)
(-0.351761 -0.00560967 0.0266686)
(-0.30761 -0.00725119 0.0407173)
(-0.408805 -0.00127263 0.0110933)
(-0.389311 -0.0021005 0.0209104)
(-0.404073 -0.0074519 0.0494889)
(-0.319751 0.0033862 -0.0457624)
(-0.439835 -0.000309113 0.0114311)
(-0.412517 -0.000413526 0.0107273)
(-0.37585 0.00202794 -0.0538204)
(-0.390236 0.00150937 -0.0558819)
(-0.312328 0.00143629 -0.0448382)
(-0.32336 0.00125675 -0.0465113)
(-0.411892 0.00080181 0.0107186)
(-0.412668 0.000289507 0.0107313)
(-0.320095 -0.00126144 -0.0460201)
(-0.336667 0.00124915 -0.0484209)
(-0.382487 -0.00150811 -0.054761)
(-0.355984 -0.00401687 -0.0507972)
(-0.319701 -0.00125871 -0.0459566)
(-0.385389 0.00253145 0.0228933)
(-0.398723 0.00193639 0.0142199)
(-0.352134 0.00421012 0.0399299)
(-0.303849 0.00570636 0.0397277)
(-0.389237 0.00934588 0.0473477)
(-0.294267 0.00507703 0.0380013)
(-0.322561 0.00509389 0.0355793)
(-0.281175 -0.00637981 -0.0279603)
(-0.344813 -0.00658276 -0.0364139)
(-0.396365 -0.00323461 -0.0147724)
(-0.381779 0.00670595 0.0478587)
(-0.282103 0.00222794 0.00977351)
(-0.357098 0.000979596 0.00409297)
(-0.268316 0.00200595 0.00882564)
(-0.30743 0.000712273 0.00296984)
(-0.356356 -0.00183438 -0.00721108)
(-0.32371 0.000707908 0.00292521)
(-0.348913 -0.000766223 -0.00304792)
(-0.306798 -0.00183302 -0.0071911)
(-0.301944 -0.0022094 -0.00853896)
(-0.325884 -0.00206199 -0.00413418)
(-0.318205 -0.00105171 -0.00205347)
(-0.2774 -0.00248324 0.0179788)
(-0.349596 0.00322015 -0.0452335)
(-0.306772 0.00282678 -0.0396924)
(-0.326054 0.000448108 -0.0063372)
(-0.30594 -0.000419098 0.00593021)
(-0.301767 -0.00278446 0.0390846)
(-0.307012 -0.00286249 0.0397191)
(-0.290738 0.00014802 -0.00567583)
(-0.289051 -0.000145439 -0.00564211)
(-0.290452 -0.000146236 -0.00567032)
(-0.289116 -0.000147066 0.00564371)
(-0.290321 0.000146222 0.00566674)
(-0.288812 0.000145578 0.00563858)
(-0.303944 -0.00269337 -0.0393778)
(-0.340986 -0.00304113 -0.04415)
(-0.402694 -0.000530617 -0.00783154)
(-0.29784 0.000393072 0.00578812)
(-0.406485 0.000536415 0.00789987)
(-0.304067 0.00269072 0.039356)
(-0.299537 0.00266233 0.0387795)
(-0.286714 -0.00219157 -0.0187029)
(-0.279752 0.00215488 0.0183916)
(-0.356208 -0.00129995 -0.0453778)
(-0.301803 0.00432633 0.0383578)
(-0.307803 0.0015584 0.039222)
(-0.321351 0.0140746 -0.0308138)
(-0.275735 0.00818212 -0.00432762)
(-0.292989 0.00773154 0.0262528)
(-0.284518 0.00914575 0.0287417)
(-0.272357 -0.0026814 0.0173685)
(-0.289446 0.000593291 -0.00557974)
(-0.272696 0.00190916 -0.0179495)
(-0.29067 0.000595303 -0.00559757)
(-0.289196 0.000395361 -0.00560691)
(-0.293186 0.000600523 -0.00564634)
(-0.293796 -0.000598998 0.00566047)
(-0.291417 -0.000399325 0.00564902)
(-0.307166 -0.000626198 0.00591701)
(-0.290944 -0.00260487 0.0188561)
(-0.292578 -0.000596715 0.00563794)
(-0.28187 -0.000386348 0.00546491)
(-0.290528 -0.000592583 0.00558299)
(-0.291029 -0.000398807 0.0056468)
(-0.278574 -0.000381734 0.00540986)
(-0.288715 -0.000395926 0.00561283)
(-0.28256 0.000371572 0.00548226)
(-0.296469 -0.000554534 -0.00569238)
(-0.308082 -0.0019973 -0.0203674)
(-0.293244 -0.00189321 -0.0194344)
(-0.287044 0.000377219 0.00556854)
(-0.287151 0.000377644 0.00557357)
(-0.290592 0.000381844 0.0056354)
(-0.301045 -0.000563517 -0.00578586)
(-0.354964 -0.000664629 -0.00682121)
(-0.403231 0.000751877 0.00774837)
(-0.353855 0.000660156 0.00680259)
(-0.298106 0.000560938 0.0057585)
(-0.331895 -0.0024745 -0.0218627)
(-0.304567 -0.0023082 -0.0196345)
(-0.286872 -0.00217432 -0.0184906)
(-0.267567 0.000571109 0.00501126)
(-0.28254 0.000603992 0.00529681)
(-0.271764 0.00209466 0.0178736)
(-0.293471 0.00224989 0.0191464)
(-0.280235 0.00212711 0.0185574)
(-0.278248 -0.000374981 -0.00517411)
(-0.347905 0.00683496 -0.041509)
(-0.283037 0.000220168 -0.00518382)
(-0.288956 -0.000388222 -0.00542566)
(-0.274487 -0.000593735 -0.00517524)
(-0.283156 -0.00038184 -0.00527254)
(-0.291033 0.000387034 0.00541185)
(-0.279451 0.000597582 0.00524029)
(-0.287845 0.000615693 0.00539988)
(-0.289515 0.000393607 0.00543434)
(-0.289785 0.000225628 -0.00530903)
(-0.286706 0.000223097 -0.00525381)
(-0.292154 -0.000228969 0.00535223)
(-0.290017 -0.000227484 0.00531284)
(-0.27387 -0.00127437 0.00471)
(-0.281633 0.000383253 0.00528906)
(-0.274146 0.000587106 0.00516774)
(-0.288681 0.000392702 0.00542044)
(-0.285342 -0.000222777 0.0052403)
(-0.289326 -0.000226931 0.0053006)
(-0.409332 -0.00779663 0.0480984)
(-0.323664 -0.00616732 0.0380326)
(-0.333371 0.0104671 -0.0166476)
(-0.39333 -0.0160783 0.0386726)
(-0.38378 -0.000134865 0.0212305)
(-0.392687 -0.000581144 0.0036411)
(-0.378879 -0.00355198 0.0230404)
(-0.392838 0.00180018 0.00378589)
(-0.299465 0.00275928 -0.038746)
(-0.321646 0.00455412 -0.0414132)
(-0.355666 0.00327884 -0.0460186)
(-0.415777 0.00587846 -0.0535247)
(-0.329254 0.00154873 -0.0219032)
(-0.290179 -0.00259905 0.0188117)
(-0.405864 -0.00359371 0.0265574)
(-0.358151 -0.00496933 0.0461289)
(-0.321953 -0.00300293 0.041652)
(-0.367448 -0.00336303 0.0222283)
(-0.392674 -0.000569877 0.00362989)
(-0.377691 -0.0035403 0.0229702)
(-0.392676 -0.000549898 0.00361113)
(-0.391785 -0.00100959 0.00996923)
(-0.393489 -0.00126364 0.00441667)
(-0.294315 0.00271209 -0.0380794)
(-0.308763 0.00145179 -0.0205407)
(-0.304474 0.000418393 -0.00591605)
(-0.295569 0.0013899 -0.0196618)
(-0.289732 0.000147423 -0.00565711)
(-0.275324 0.000480625 -0.0184293)
(-0.277591 0.000484586 -0.018579)
(-0.290332 0.000147723 -0.00566685)
(-0.291006 0.000148071 -0.00568009)
(-0.291574 0.000148269 -0.00569065)
(-0.291836 -0.000148426 0.00569547)
(-0.292504 -0.000148695 0.00570929)
(-0.294347 -0.00014973 0.00574643)
(-0.29142 -0.000148187 0.00568681)
(-0.289405 -0.000147251 0.00564822)
(-0.290141 -0.00014769 0.00566281)
(-0.391522 -0.00101056 0.0114035)
(-0.390563 -0.00100812 0.0156847)
(-0.380062 -0.000602535 0.0228053)
(-0.380498 -0.000609577 0.0228324)
(-0.271534 0.000473967 -0.0181756)
(-0.287809 -0.00014488 -0.00561842)
(-0.30281 -0.00268146 -0.0392304)
(-0.29514 -0.00200873 -0.0384566)
(-0.290368 -0.000274028 -0.00565573)
(-0.292656 -0.00132603 -0.0195196)
(-0.28485 -0.00092555 -0.0189942)
(-0.292201 -0.000148626 0.00570437)
(-0.290703 0.000146402 0.00567596)
(-0.291916 0.000147143 0.00569926)
(-0.290862 -0.000273903 -0.00566555)
(-0.330641 -0.000435846 -0.00643117)
(-0.293735 -0.000274492 -0.00571926)
(-0.296045 0.000276482 0.00576432)
(-0.333365 0.000295768 0.00651846)
(-0.293391 0.000274986 0.00571401)
(-0.294372 0.00038866 0.00572165)
(-0.290729 0.000274205 0.00566053)
(-0.294431 0.00262947 0.0381347)
(-0.379923 -0.000609812 0.0227972)
(-0.37983 0.000598549 0.0227814)
(-0.389715 0.000961124 0.0182516)
(-0.385653 0.000672818 0.0218436)
(-0.35996 -0.00463324 -0.0463341)
(-0.294602 -0.00133425 -0.0196471)
(-0.402368 -0.000530209 -0.00780661)
(-0.301782 -0.00136738 -0.0201251)
(-0.30776 0.00197755 0.0203094)
(-0.289809 0.00186939 0.0191461)
(-0.390187 0.000958919 0.0169136)
(-0.391237 0.000966432 0.0128456)
(-0.360178 0.00225497 0.02168)
(-0.39327 0.00037773 0.00361635)
(-0.361569 0.00223964 0.0218211)
(-0.393918 0.000378062 0.00362203)
(-0.396922 -0.00936875 -0.0545747)
(-0.327465 0.00247136 0.0215743)
(-0.292756 0.00225548 0.0192513)
(-0.298808 0.00428448 0.0379803)
(-0.371991 0.00289745 0.0224238)
(-0.393009 0.000420833 0.00361033)
(-0.362092 0.00251114 0.0218404)
(-0.392704 0.000475258 0.00361499)
(-0.30011 -0.00109572 -0.0382298)
(-0.358079 0.0205741 -0.0469419)
(-0.299277 0.00512119 -0.0354878)
(-0.393005 0.0158014 -0.0381244)
(-0.291084 -0.00533733 0.0350941)
(-0.380612 0.0334709 -0.0172173)
(-0.28098 0.00733246 -0.00384539)
(-0.282357 -0.00722525 0.00394069)
(-0.31962 -0.00823222 0.00449396)
(-0.360201 -0.0463487 0.00267802)
(-0.393775 0.00237575 -8.3262e-05)
(-0.392829 -0.000581352 0.00364995)
(-0.393342 0.00177902 0.00380713)
(-0.393239 2.35943e-05 -0.000151246)
(-0.391881 0.00231235 -0.00950802)
(-0.368548 0.00383325 -0.0220055)
(-0.392464 0.0012359 -0.00643747)
(-0.359445 0.0043884 -0.0214024)
(-0.393833 2.36299e-05 -0.000151474)
(-0.392741 -0.000581514 0.00364913)
(-0.392637 -0.000549843 0.00361035)
(-0.393277 2.35966e-05 -0.00015126)
(-0.393951 -0.000208892 0.00262252)
(-0.393165 -0.000267513 0.00360017)
(-0.392762 -0.000416478 0.00359632)
(-0.393499 -0.000267741 0.00360323)
(-0.392992 0.000695807 -0.00410207)
(-0.37364 0.0030506 -0.0214622)
(-0.392725 0.00123212 -0.00542895)
(-0.38086 0.00284363 -0.0151554)
(-0.392985 0.000503378 -0.0040678)
(-0.3907 0.000794609 -0.0101815)
(-0.392984 0.000318393 -0.00407166)
(-0.389519 0.00126765 -0.0101517)
(-0.393567 -0.00026775 0.0036041)
(-0.393367 -0.000271437 0.00359811)
(-0.393959 -0.000268054 0.00359988)
(-0.393446 -0.000275565 0.00360274)
(-0.393203 -9.42741e-05 0.00359286)
(-0.392386 -0.000357024 0.00615794)
(-0.39267 -0.000360243 0.00462203)
(-0.392889 -9.43423e-05 0.00359012)
(-0.393331 0.000204608 -0.00375381)
(-0.39119 0.000800403 -0.0101906)
(-0.393014 0.000314492 -0.0040682)
(-0.391855 0.00056077 -0.00988648)
(-0.393434 7.0883e-05 -0.00244265)
(-0.392177 0.000192569 -0.0065503)
(-0.393221 7.07526e-05 -0.00222274)
(-0.392153 0.000192535 -0.00703489)
(-0.393117 9.42534e-05 0.00359206)
(-0.392292 -0.000361341 0.00666856)
(-0.392232 0.000353336 0.0069833)
(-0.392872 -9.43382e-05 0.00358997)
(-0.393276 0.000180941 0.00359372)
(-0.394211 0.000260205 0.00360961)
(-0.393804 0.000176051 0.00360173)
(-0.393195 0.000259534 0.00359296)
(-0.393483 -7.47361e-05 -0.00209974)
(-0.392198 0.00019284 -0.00639188)
(-0.393229 7.08418e-05 -0.00214741)
(-0.392257 -0.000192617 -0.00629406)
(-0.393434 -0.000133798 -0.00278969)
(-0.39193 -0.000533564 -0.00904639)
(-0.393145 -0.00019274 -0.00336398)
(-0.392159 -0.000361703 -0.0077962)
(-0.393689 0.00025986 0.00359747)
(-0.394072 0.000252384 0.00360848)
(-0.393591 0.000256008 0.0036003)
(-0.393248 0.000259713 0.00359358)
(-0.39403 0.000185269 0.00120782)
(-0.392637 0.000381044 0.00361432)
(-0.392776 0.000377262 0.00361182)
(-0.393742 0.000188756 4.52009e-05)
(-0.393271 -0.000294486 -0.00407407)
(-0.391875 -0.000530206 -0.0094872)
(-0.393127 -0.000200581 -0.00356712)
(-0.391522 -0.000741221 -0.0101807)
(-0.392681 -0.000459649 -0.00408367)
(-0.379755 -0.00112571 -0.00992163)
(-0.392508 -0.000455526 -0.00408563)
(-0.382732 -0.00113232 -0.00997746)
(-0.393805 -2.36282e-05 -0.000151463)
(-0.392592 0.00041254 0.00361376)
(-0.392665 0.000479135 0.00360323)
(-0.393683 -1.57473e-05 -0.000151416)
(-0.392577 -0.000578908 -0.0040773)
(-0.379135 -0.00111692 -0.0101698)
(-0.392528 -0.000455732 -0.00408567)
(-0.36993 -0.00237042 -0.0144444)
(-0.351858 0.0219619 0.0457882)
(-0.486908 0.0551431 0.0430632)
(-0.315237 0.0217363 0.0323222)
(-0.38572 0.0308486 0.0212907)
(-0.316158 -0.00902873 0.00492676)
(-0.277505 -0.00794856 0.00433433)
(-0.391251 0.00347694 0.00540669)
(-0.334705 -0.00255195 -0.0042132)
(-0.267273 0.000422834 -0.00314459)
(-0.268034 -0.00153284 0.0102628)
(-0.30471 -0.00131363 0.011572)
(-0.288299 -0.000467838 0.00333346)
(-0.276339 -0.00159414 0.0108094)
(-0.292097 0.00045526 -0.0033963)
(-0.271117 0.000445161 -0.00328448)
(-0.279628 0.00043627 -0.00325448)
(-0.290433 0.000452795 -0.00337777)
(-0.281182 0.00141821 -0.0109216)
(-0.266898 0.000438095 -0.00323443)
(-0.289626 0.000463679 -0.00343842)
(-0.272618 0.00144745 -0.020658)
(-0.352571 0.0037711 -0.0212071)
(-0.362395 0.00376098 -0.021602)
(-0.38705 0.00079263 -0.0100872)
(-0.382086 0.00205868 -0.0129026)
(-0.290908 0.00155161 -0.0218881)
(-0.277664 0.00147214 -0.0210367)
(-0.347976 0.000685961 -0.0261884)
(-0.283575 0.000749132 -0.0285425)
(-0.277473 0.000552906 -0.027879)
(-0.354771 0.000700922 -0.0266692)
(-0.388485 0.000795679 -0.0101222)
(-0.389418 0.000796371 -0.0101439)
(-0.389345 0.000277007 -0.0101225)
(-0.389368 0.000277428 -0.0101227)
(-0.355509 -0.000744482 -0.0267216)
(-0.284009 0.000753301 -0.0286869)
(-0.355192 0.000701713 -0.0267009)
(-0.284305 -0.000803539 -0.0287681)
(-0.306955 -0.00125281 -0.0229831)
(-0.294858 -0.00179114 -0.0220276)
(-0.389347 0.000273148 -0.0101189)
(-0.389382 -0.000273172 -0.0101198)
(-0.389425 -0.000761232 -0.0101252)
(-0.389516 -0.000511958 -0.0101266)
(-0.280328 0.00126309 0.0104379)
(-0.280368 0.00126611 0.01045)
(-0.293168 0.00133637 0.0109904)
(-0.304406 0.000420663 0.00338196)
(-0.286447 0.0013029 0.0107232)
(-0.296228 0.00135077 0.0111094)
(-0.290062 0.000401387 0.00322505)
(-0.346421 -0.000486996 -0.00383121)
(-0.289502 -0.000406671 -0.0031998)
(-0.304459 -0.00043278 -0.00341511)
(-0.291651 -0.000410447 -0.0032274)
(-0.277072 -0.00165055 -0.0205676)
(-0.290802 -0.00175822 -0.0217014)
(-0.293894 -0.00139433 -0.0107727)
(-0.288675 -0.000407423 -0.00321072)
(-0.300956 -0.000428067 -0.00337756)
(-0.279305 -0.00132595 -0.0102384)
(-0.389414 -0.000757752 -0.0101282)
(-0.389171 -0.000647903 -0.00999516)
(-0.43027 -0.00365569 -0.0233217)
(-0.367695 -0.00106208 -0.0165079)
(-0.27074 0.00121774 0.00999273)
(-0.279769 0.00128463 0.0105115)
(-0.286653 0.00040199 0.00316682)
(-0.284964 -0.000398098 -0.0030865)
(-0.289109 -0.000414931 -0.00318256)
(-0.282923 -0.000394416 -0.00308649)
(-0.26812 -0.00127357 -0.00982919)
(-0.429357 -0.00123103 -0.0240978)
(-0.356851 0.00834731 0.0502711)
(-0.422048 0.0152366 0.0589102)
(-0.344125 0.00814884 0.0417922)
(-0.3118 0.00996581 0.0323469)
(-0.303231 -0.00389428 0.041465)
(-0.345711 -0.00477616 0.0485806)
(-0.293134 -0.00463976 0.0387366)
(-0.270881 -0.00242528 0.017552)
(-0.353104 -0.0064078 0.0499382)
(-0.299337 0.00279427 -0.0387638)
(-0.303871 0.00280695 -0.0393239)
(-0.301548 0.000414063 -0.00585874)
(-0.297037 0.000408007 -0.00577153)
(-0.304712 0.000418692 -0.00592213)
(-0.29305 -0.00138055 0.0195375)
(-0.298813 -0.000409519 0.00579267)
(-0.291266 -0.000399415 0.00566194)
(-0.297774 -0.000408117 0.00577316)
(-0.290419 -0.00136963 0.0193598)
(-0.290671 -0.000398585 0.00564921)
(-0.294731 -0.000404091 0.00571548)
(-0.350373 -0.00324027 0.0453706)
(-0.307285 -0.00283374 0.039798)
(-0.29951 -0.00276177 0.0387927)
(-0.356288 -0.00330494 0.0461158)
(-0.362694 -0.00338122 0.0469232)
(-0.368998 -0.00340499 0.047791)
(-0.360242 0.00122966 -0.0468111)
(-0.359969 -0.00121172 -0.0467752)
(-0.361138 -0.00121509 -0.0469274)
(-0.360374 -0.00121298 -0.0468281)
(-0.291117 0.000148213 -0.00568324)
(-0.292113 -0.000147071 -0.00570273)
(-0.29083 -0.000146425 -0.00567765)
(-0.289508 -0.000145689 -0.00565042)
(-0.291434 -0.000146684 -0.00568734)
(-0.290843 -0.000146432 -0.00567795)
(-0.292512 -0.000147273 -0.00571053)
(-0.29185 -0.000146821 -0.00569756)
(-0.291219 -0.00014662 -0.00568524)
(-0.287622 -0.000146313 0.00561316)
(-0.287284 0.00014479 0.00560893)
(-0.290715 0.000146451 0.00567478)
(-0.289963 0.000146125 0.00566067)
(-0.289221 0.000145784 0.00564657)
(-0.289014 0.000145613 0.00564206)
(-0.287722 0.000145062 0.00561728)
(-0.30225 0.00102196 0.0392751)
(-0.302719 0.00102126 0.039334)
(-0.358776 0.00121373 0.0466202)
(-0.359069 -0.00121994 0.0466581)
(-0.301936 0.00102101 0.0392348)
(-0.302162 -0.00102617 0.039263)
(-0.359168 0.0012134 0.0466712)
(-0.359665 0.00121013 0.0467289)
(-0.361912 -0.0046024 -0.0466834)
(-0.34956 -0.0031234 -0.045246)
(-0.294833 0.000389242 0.00573285)
(-0.29994 0.00135549 0.0199629)
(-0.355934 0.000469817 0.00691894)
(-0.306792 0.00138717 0.0204192)
(-0.362721 0.00321138 0.0469498)
(-0.307028 0.00271788 0.0397376)
(-0.350246 0.00453591 0.0451669)
(-0.350458 0.00313624 0.0453971)
(-0.279564 -0.00208597 -0.0183896)
(-0.298732 -0.00228323 -0.0194905)
(-0.324153 -0.0024769 -0.0211451)
(-0.291611 -0.0022285 -0.0190232)
(-0.401821 -0.00307124 -0.026216)
(-0.306519 -0.00234232 -0.0199947)
(-0.365529 0.00614266 0.0522711)
(-0.416717 0.00621332 0.0534974)
(-0.284898 0.0020125 0.0207127)
(-0.333702 0.00481356 0.0473404)
(-0.357538 0.00563158 0.0509433)
(-0.357179 -0.00130578 -0.0455019)
(-0.354666 0.00134941 0.0446418)
(-0.325181 0.00161447 0.0414038)
(-0.298914 0.00115792 0.0376508)
(-0.324257 0.0204049 -0.014007)
(-0.393826 0.0167404 -0.0381386)
(-0.321601 0.0109543 -0.0160755)
(-0.38044 0.033975 -0.0382203)
(-0.392592 0.0130975 -0.000867881)
(-0.418011 0.00226118 0.00159849)
(-0.477632 0.00372222 -0.000599162)
(-0.392344 0.0128863 -0.00286564)
(-0.467757 0.0105749 -0.00119321)
(-0.480358 0.00246067 0.00134107)
(-0.315981 0.0299307 -0.0143958)
(-0.472105 0.0462154 -0.0207259)
(-0.277167 0.00824149 -0.00449566)
(-0.281666 0.00828024 -0.00441711)
(-0.31977 0.00952921 -0.00520047)
(-0.328716 0.0101937 -0.00560953)
(-0.285177 0.00835126 -0.00447361)
(-0.335808 0.00941126 -0.00518665)
(-0.384362 0.0112751 -0.0541077)
(-0.379515 -0.00399905 0.0227262)
(-0.38197 -0.00402571 0.0228735)
(-0.421782 0.00843395 -0.0573349)
(-0.41055 -0.000836549 0.010679)
(-0.354182 -0.00240313 0.0332279)
(-0.411268 -0.000836006 0.0106977)
(-0.342582 -0.00161056 0.0367902)
(-0.355868 0.00382614 -0.0508664)
(-0.354181 0.00381474 -0.0506448)
(-0.46866 0.000324464 0.0121868)
(-0.359458 -0.000853448 0.0280128)
(-0.359904 0.000842662 0.0276915)
(-0.357492 0.000840913 0.0297033)
(-0.46519 0.000326637 0.0120956)
(-0.359281 0.000842838 0.0281985)
(-0.441359 -0.00173975 -0.0631994)
(-0.40966 0.000795214 0.0106787)
(-0.342538 0.00154679 0.0368082)
(-0.40937 0.000804777 0.0106679)
(-0.318954 -0.00353876 -0.0454431)
(-0.33279 -0.0036993 -0.0474151)
(-0.379535 0.00325913 0.0226209)
(-0.375619 0.00458195 0.0237257)
(-0.370781 -0.00819749 -0.0510512)
(-0.296229 -0.0068457 -0.0384366)
(-0.361185 -0.00821581 -0.0455437)
(-0.305777 -0.00707197 -0.0396789)
(-0.296348 -0.00684568 -0.0384534)
(-0.347544 -0.00708816 -0.0439708)
(-0.328579 0.00426845 0.0232036)
(-0.271994 0.00352575 0.0193106)
(-0.298716 0.00442411 0.0248042)
(-0.398462 0.00516352 0.0282861)
(-0.327535 0.00425503 0.0235878)
(-0.282179 0.00365651 0.0200866)
(-0.35184 -0.00395399 -0.0175111)
(-0.293459 -0.0023061 -0.00911092)
(-0.301025 -0.00236487 -0.00934516)
(-0.315826 0.00575345 0.0202437)
(-0.277923 0.00744186 0.0254606)
(-0.288261 0.00524837 0.018394)
(-0.392079 0.00699053 0.0243969)
(-0.343419 0.000840973 0.00292142)
(-0.342868 -0.00078871 -0.00267006)
(-0.33489 0.000952043 0.00269976)
(-0.34382 0.00102533 0.00289512)
(-0.343932 -0.000931939 -0.00261291)
(-0.344641 0.00102778 0.00290203)
(-0.289291 -0.00240051 -0.00691967)
(-0.27136 -0.00424589 -0.0114431)
(-0.398483 -0.00566851 -0.0183638)
(-0.299036 0.00209324 -0.0196834)
(-0.401249 0.00352698 -0.0260382)
(-0.289997 0.00202974 -0.0190869)
(-0.290906 0.000595968 -0.00560633)
(-0.29423 0.00205904 -0.0193651)
(-0.280092 0.00195925 -0.0184362)
(-0.285325 0.00199698 -0.0187813)
(-0.2919 0.000597862 -0.00562441)
(-0.296986 0.000608479 -0.00572162)
(-0.289785 0.000396447 -0.00562049)
(-0.307464 0.000625878 -0.0059075)
(-0.294677 0.000604205 -0.00568071)
(-0.35366 0.000718182 -0.0067841)
(-0.301265 0.000616634 -0.0058011)
(-0.297939 -0.000608401 0.00574454)
(-0.353235 -0.000720594 0.00680562)
(-0.29214 -0.000400357 0.00566683)
(-0.326118 0.000661679 -0.00625143)
(-0.325743 -0.000664591 0.00627989)
(-0.402678 0.000816788 -0.0077163)
(-0.402222 -0.000821288 0.00775567)
(-0.353914 -0.000721979 0.00678904)
(-0.397966 -0.00352277 0.0260419)
(-0.303147 -0.00271498 0.0196523)
(-0.280219 -0.00247968 0.0183337)
(-0.32451 -0.00287333 0.0212393)
(-0.271887 -0.00240595 0.017789)
(-0.295047 -0.00060174 0.00568441)
(-0.307742 -0.000627622 0.00590323)
(-0.291661 -0.000593864 0.00558445)
(-0.277416 -0.000380183 0.00537634)
(-0.271979 -0.00191306 0.0179938)
(-0.28941 -0.000589917 0.00554838)
(-0.301518 -0.000614466 0.00577827)
(-0.279375 -0.0019653 0.0184789)
(-0.290875 -0.000593315 0.005579)
(-0.291633 -0.000399523 0.00566401)
(-0.29023 0.000396773 -0.0056266)
(-0.28996 -0.000397582 0.00563622)
(-0.269623 -0.000369429 0.00524006)
(-0.28591 -0.000391824 0.00555704)
(-0.289224 0.00039527 -0.00560614)
(-0.270746 -0.00037087 0.00526079)
(-0.288365 -0.000395288 0.00560508)
(-0.286114 0.0003763 0.0055522)
(-0.269718 -0.000292579 -0.00559729)
(-0.269826 -0.000355432 -0.00523434)
(-0.293189 -0.000548526 -0.00563101)
(-0.272617 -0.00176069 -0.0180729)
(-0.289579 -0.00186989 -0.0191941)
(-0.297489 -0.00193341 -0.0196244)
(-0.284736 -0.00183861 -0.0188757)
(-0.278961 -0.00180145 -0.0184901)
(-0.288933 0.000379637 0.00560573)
(-0.291309 -0.000383903 -0.00566344)
(-0.291209 0.000382627 0.00564957)
(-0.288807 0.000379673 0.00560215)
(-0.294119 0.000553223 0.0056801)
(-0.290965 0.000382284 0.00564226)
(-0.291691 -0.000384357 -0.00567048)
(-0.295527 0.000553992 0.00569484)
(-0.291535 0.000383362 0.00565587)
(-0.294757 -0.000551901 -0.00566587)
(-0.292004 -0.000547283 -0.00563914)
(-0.308755 -0.000578262 -0.00594558)
(-0.405575 -0.000759609 -0.00780339)
(-0.293002 -0.000548803 -0.00565617)
(-0.331142 -0.000620068 -0.00638951)
(-0.327268 0.000611043 0.00629291)
(-0.300205 0.000562568 0.00578458)
(-0.30428 0.000568077 0.00585056)
(-0.307734 0.000576587 0.00592788)
(-0.289842 0.0005454 0.00559727)
(-0.293949 0.000553507 0.00568183)
(-0.404047 0.000746695 0.00760446)
(-0.289385 0.00186037 0.019096)
(-0.295266 0.00055565 0.00570424)
(-0.288448 0.000542512 0.00556814)