/*--------------------------------*- C++ -*----------------------------------*\
  =========                 |
  \\      /  F ield         | OpenFOAM: The Open Source CFD Toolbox
   \\    /   O peration     | Website:  https://openfoam.org
    \\  /    A nd           | Version:  10
     \\/     M anipulation  |
\*---------------------------------------------------------------------------*/
FoamFile
{
    format      ascii;
    class       volVectorField;
    location    "0";
    object      U;
}
// * * * * * * * * * * * * * * * * * * * * * * * * * * * * * * * * * * * * * //

dimensions      [0 1 -1 0 0 0 0];

internalField   uniform (10 0 0);

boundaryField
{
    inlet
    {
        type            fixedValue;
        value           nonuniform List<vector> 0();
    }
    outlet
    {
        type            zeroGradient;
    }
    walls
    {
        type            noSlip;
    }
    drone
    {
        type            noSlip;
    }
    blades
    {
        type            movingWallVelocity;
        value           uniform (0 0 0);
    }
    procBoundary2to0
    {
        type            processor;
        value           uniform (10 0 0);
    }
    procBoundary2to1
    {
        type            processor;
        value           uniform (10 0 0);
    }
    procBoundary2to3
    {
        type            processor;
        value           uniform (10 0 0);
    }
    procBoundary2to4
    {
        type            processor;
        value           uniform (10 0 0);
    }
}


// ************************************************************************* //
