/*--------------------------------*- C++ -*----------------------------------*\
  =========                 |
  \\      /  F ield         | OpenFOAM: The Open Source CFD Toolbox
   \\    /   O peration     | Website:  https://openfoam.org
    \\  /    A nd           | Version:  10
     \\/     M anipulation  |
\*---------------------------------------------------------------------------*/
FoamFile
{
    format      ascii;
    class       volVectorField;
    location    "0";
    object      wallShearStress;
}
// * * * * * * * * * * * * * * * * * * * * * * * * * * * * * * * * * * * * * //

dimensions      [0 2 -2 0 0 0 0];

internalField   uniform (0 0 0);

boundaryField
{
    inlet
    {
        type            calculated;
        value           nonuniform List<vector> 0();
    }
    outlet
    {
        type            calculated;
        value           nonuniform List<vector> 0();
    }
    walls
    {
        type            calculated;
        value           nonuniform List<vector> 0();
    }
    drone
    {
        type            calculated;
        value           nonuniform List<vector> 
13374
(
(-0.375966 0.00415501 0.0351372)
(-0.466621 -0.0937816 0.0474969)
(-0.429734 0.0543622 0.0649196)
(-0.433547 -0.0472424 0.0174959)
(-0.333489 -0.0157518 -0.0018659)
(-0.428598 -0.0278753 1.03691e-05)
(-0.322542 -0.0166953 0.000431665)
(-0.452348 -0.00537557 -0.00265644)
(-0.456051 0.00571655 -0.000504483)
(-0.42516 0.0354957 -0.0019392)
(-0.378114 0.000199268 -0.0672169)
(-0.381881 0.0314579 -0.0517207)
(-0.384877 -0.0115805 -0.0594774)
(-0.459531 -0.0153654 -0.0404428)
(-0.422488 -0.0171715 -0.126649)
(-0.31688 -0.01165 -0.00143878)
(-0.432149 0.017319 0.0730042)
(-0.511919 -0.113658 0.074001)
(-0.455124 -0.00297954 0.0434779)
(-0.378516 0.0310329 0.0500268)
(-0.447364 -0.00790345 -0.117416)
(-0.424434 -0.0494175 -0.000685693)
(-0.4578 0.000579377 -0.00467788)
(-0.355217 -0.0177918 0.0318491)
(-0.337413 -0.0176584 -0.00381603)
(-0.321802 -0.00298832 -0.000329024)
(-0.436062 0.00679792 0.0110955)
(-0.373312 -0.0296359 -0.0515355)
(-0.346863 0.110665 -0.114152)
(-0.294852 -0.0103333 -0.0251759)
(-0.358923 0.0207 0.0366606)
(-0.413469 -0.0572987 -0.00251453)
(-0.458922 0.000865415 -0.00376113)
(-0.501807 0.0575191 -0.0086114)
(-0.461773 0.0606899 -0.00545017)
(-0.352408 0.107548 -0.112434)
(-0.322773 0.0244277 0.00579977)
(-0.455153 0.0350604 0.0095778)
(-0.32124 0.000137729 0.00489185)
(-0.34707 0.0121819 0.0390651)
(-0.293505 0.00809438 0.0326008)
(-0.401115 0.0121394 0.0463371)
(-0.337484 0.00504887 0.0235333)
(-0.33494 0.00015553 -0.00378613)
(-0.327191 0.00014237 -0.003072)
(-0.276559 0 1.36887e-17)
(-0.33161 0.00015538 -0.00408299)
(-0.383705 0.0218715 0.00971391)
(-0.445535 -0.0488199 -0.0379832)
(-0.438351 -0.0213754 0.0585909)
(-0.34244 0.000145775 -0.0030935)
(-0.317659 0.0071945 0.00244741)
(-0.395469 -0.00381381 0.0252742)
(-0.322036 -0.004035 0.0277349)
(-0.282551 0 -2.83253e-18)
(-0.282526 0 -1.1328e-17)
(-0.345038 0 -1.59655e-17)
(-0.347392 0 0)
(-0.389991 3.27011e-05 0.000264191)
(-0.284657 0.000127142 0.00316215)
(-0.327018 -0.00619042 -0.0294281)
(-0.286153 0.000127378 0.00311123)
(-0.340767 0.000212517 0.00646774)
(-0.285654 0.00012594 0.00269466)
(-0.448025 -0.064666 8.97859e-06)
(-0.410948 -0.0503215 -0.0294112)
(-0.346058 0.000150509 0.00316112)
(-0.266703 -3.40493e-05 -0.00241982)
(-0.274218 0.000115663 0.00440382)
(-0.346011 0.000150736 0.0031644)
(-0.288488 0.000125544 0.002635)
(-0.429085 -0.0604004 0.0136929)
(-0.405331 0.00094281 0.0125743)
(-0.405591 -0.00212805 0.0230763)
(-0.334467 0.018108 0.0079176)
(-0.411847 -0.0112602 0.0548977)
(-0.272293 -0.00520852 -0.00174451)
(-0.336675 -0.00728469 -0.00231198)
(-0.340919 -0.00784196 -0.00249877)
(-0.382983 -0.0468714 0.0274436)
(-0.323918 0.00730416 0.00250557)
(-0.345471 0.00790389 0.00278783)
(-0.339959 0.00772018 0.00271653)
(-0.378927 0.0508978 0.0134161)
(-0.478824 0.0415416 0.00250216)
(-0.430512 0.066961 0.0119642)
(-0.414793 0.0615725 0.0104485)
(-0.395733 -0.0051053 0.0139706)
(-0.340391 -0.00130798 0.00383688)
(-0.344734 0.00132015 -0.00403213)
(-0.344337 0.00134085 -0.00409134)
(-0.339255 -0.0025908 0.0426795)
(-0.401768 0.00771232 0.00280794)
(-0.343206 0.00656607 0.00239468)
(-0.31522 0.00398721 -0.0029232)
(-0.297776 0.00371402 -0.00273769)
(-0.276757 0.00134698 0.00459491)
(-0.286789 0.00151452 0.00470342)
(-0.275424 0.00129633 0.00456719)
(-0.271589 0.00117779 0.00445689)
(-0.294999 -0.000240533 0.00542342)
(-0.286923 0.000354026 0.00522278)
(-0.291907 0.000362922 0.00532758)
(-0.29356 -0.000257514 0.00539383)
(-0.291081 -0.000281023 0.00534677)
(-0.286023 0.000353321 0.00521214)
(-0.282756 0.000349064 0.00515011)
(-0.293096 -0.00026336 0.00538481)
(-0.287024 -0.0028261 0.0183002)
(-0.298726 -0.00267465 0.0193651)
(-0.400375 -0.00386809 0.0258813)
(-0.34489 -0.0413394 -5.96512e-05)
(-0.364058 -0.0351713 0.015795)
(-0.429833 -0.0139297 9.7e-20)
(-0.350357 0.000156576 -0.00492481)
(-0.36363 -0.0148325 -0.0406558)
(-0.434874 -0.0560104 -0.0251235)
(-0.37331 -0.0517996 -8.75027e-06)
(-0.38561 -0.0535077 -1.21812e-05)
(-0.33178 -0.00645843 -0.00240768)
(-0.333037 0.00617818 0.00229266)
(-0.34739 0.00673621 0.00250771)
(-0.337563 0.0169966 0.0172514)
(-0.315729 0.00600206 0.00224335)
(-0.293258 0.00561338 0.00209696)
(-0.356647 -0.0411751 1.16812e-05)
(-0.450843 -0.0106017 0.030081)
(-0.317874 -0.0121613 0.0102933)
(-0.324869 -0.012293 0.0106624)
(-0.345862 -0.00406765 0.00314468)
(-0.277861 0.00900775 -0.00228092)
(-0.283876 0.0195465 0.00620737)
(-0.278066 0.00481713 -0.00248955)
(-0.392942 0.00489128 -0.00360555)
(-0.444684 0.0460246 -0.0290822)
(-0.436581 0.0205517 0.00284692)
(-0.353598 0.0176096 -0.0117462)
(-0.316292 0.00408653 -0.00299147)
(-0.320998 0.00232421 -0.00174655)
(-0.521226 -0.0421682 0.0456779)
(-0.268533 0 -2.10377e-17)
(-0.343851 0 1.97433e-17)
(-0.34458 0 9.72853e-18)
(-0.273644 0.000119351 0.00392581)
(-0.273353 0.000116746 0.00428471)
(-0.284371 -0.00423918 -0.00188723)
(-0.281879 -0.00418234 -0.0018606)
(-0.276789 0.00408831 0.00176926)
(-0.447692 -0.0219754 0.0538222)
(-0.375302 -0.0128723 0.0402163)
(-0.41041 0.000175233 0.00643226)
(-0.459231 0.00483936 0.0621215)
(-0.303714 -0.00300548 0.0386406)
(-0.337693 -0.00250537 0.0425431)
(-0.45955 0.00630189 0.0616842)
(-0.417785 -0.0539014 -0.0236689)
(-0.36976 -0.0103198 0.0155638)
(-0.451377 -0.0150593 0.0325139)
(-0.311082 -0.00694205 -0.00241884)
(-0.321781 -0.00719468 -0.00247835)
(-0.29301 0.0200548 0.00727929)
(-0.337887 0.00645756 0.00235298)
(-0.311413 0.0321838 0.00827898)
(-0.306735 0.0256596 0.00700949)
(-0.315567 -0.00245222 0.00311784)
(-0.298515 -0.00677595 0.00849806)
(-0.315303 -0.00374105 0.00289518)
(-0.29763 -0.00354778 0.00275674)
(-0.33006 -0.0117741 0.0103051)
(-0.32412 -0.00912199 0.00974414)
(-0.313536 0.00251061 -0.00311973)
(-0.284707 0.00357248 -0.00263532)
(-0.376147 0.0130984 -0.0127462)
(-0.334263 0.0151237 -0.0112875)
(-0.315451 0.00253972 -0.00318501)
(-0.293677 0.00739402 -0.0319594)
(-0.334785 0.0161158 -0.0455024)
(-0.319342 0.00827417 -0.0364222)
(-0.380563 -0.0041493 -0.00391572)
(-0.322032 0.00354928 0.00334158)
(-0.376408 0.0042043 0.00396845)
(-0.289089 -0.00151017 -0.00465656)
(-0.28874 0.00152924 0.00470783)
(-0.319321 0.00345546 0.00323028)
(-0.372497 0.0118505 0.011014)
(-0.267016 0.00106672 0.00422663)
(-0.327316 0.0110115 0.00985809)
(-0.299159 0.0137637 0.0128544)
(-0.295686 -0.000234898 0.00544801)
(-0.293108 0.000365743 0.00534798)
(-0.293551 -0.000574815 0.00546312)
(-0.284349 -0.000556049 0.00530862)
(-0.289611 -0.000566801 0.00540967)
(-0.292231 -0.000573377 0.00541224)
(-0.294173 -0.00057484 0.00548017)
(-0.290712 -0.000568749 0.00542837)
(-0.276027 -0.000727669 0.00510364)
(-0.286102 -0.000763055 0.00531032)
(-0.288131 -0.000771355 0.00537209)
(-0.2893 -0.0002863 0.00531909)
(-0.279364 0.000395989 0.00548032)
(-0.289296 -0.000567692 0.0053557)
(-0.281891 -0.000551261 0.00526165)
(-0.291762 -0.000572255 0.00539948)
(-0.267753 -0.000522882 0.00498431)
(-0.287163 -0.000563896 0.00532002)
(-0.27185 -0.000709975 0.005054)
(-0.294374 -0.0029002 0.0187684)
(-0.325058 -0.00290912 0.0210663)
(-0.279424 -0.00273588 0.0183551)
(-0.274907 0 -8.56697e-18)
(-0.278186 0 -2.77687e-17)
(-0.271274 0 -1.5769e-17)
(-0.269206 0 0)
(-0.267339 0 7.23237e-18)
(-0.266982 0 0)
(-0.27375 0 -1.36109e-17)
(-0.269006 0 -1.10324e-17)
(-0.281791 0 2.68071e-17)
(-0.278178 0 0)
(-0.269468 0 0)
(-0.276545 0 1.36213e-17)
(-0.274903 0 -7.77569e-18)
(-0.33549 0.00100196 0.00360401)
(-0.444483 -0.0413436 0.0202739)
(-0.314859 0.00198126 0.00482425)
(-0.482406 0 -7.97197e-18)
(-0.331288 0.000818213 0.002488)
(-0.422466 0 -1.02637e-17)
(-0.322092 0.0427295 9.38129e-18)
(-0.362935 0.0520006 2.96664e-18)
(-0.345896 0.0317384 3.83346e-17)
(-0.379351 0 -2.75756e-18)
(-0.423162 0.0526401 -0.0274267)
(-0.337127 0.00203206 -0.0375832)
(-0.351187 0 -3.07507e-18)
(-0.33992 0.00204727 -0.0378977)
(-0.355378 0 2.59878e-17)
(-0.341148 -0.00268056 0.0190831)
(-0.430642 -0.0140074 -0.00011228)
(-0.488813 0 2.34454e-18)
(-0.387288 0.0327251 1.80231e-20)
(-0.445809 -0.0120063 3.45242e-20)
(-0.438743 -0.0142562 -0.000174818)
(-0.344815 -1.04672e-05 0.00109673)
(-0.338593 -0.00567065 -0.0189889)
(-0.324489 -0.00694972 -0.0206903)
(-0.327322 -0.0472442 -5.38228e-18)
(-0.372054 -0.0537007 1.15581e-17)
(-0.436957 -0.0630686 7.71153e-06)
(-0.399911 -0.0225631 0.0377234)
(-0.280973 0.000131314 0.00335028)
(-0.41831 0.000178719 -0.00393436)
(-0.354067 0.000160162 -0.00442853)
(-0.445133 0.000210466 -0.00653748)
(-0.274977 0.000129156 0.00352967)
(-0.319993 -0.00665623 0.0201765)
(-0.288258 0.000134731 0.00343867)
(-0.289133 0.000129123 0.0029037)
(-0.305108 0.000135504 0.00351741)
(-0.381149 -0.0142705 0.027897)
(-0.314985 0.000142705 0.00450485)
(-0.291891 0.000126935 0.00266532)
(-0.462007 -0.0126175 0.0347705)
(-0.282495 0.000132263 0.00365762)
(-0.50174 0.000222572 -0.00661774)
(-0.382224 -0.00801461 -0.035553)
(-0.407495 -0.00825882 -0.0374418)
(-0.477317 -0.00889577 -0.0427396)
(-0.365218 -0.052714 3.58679e-06)
(-0.363612 -0.0524823 -5.1349e-07)
(-0.467732 -0.0555439 -0.0355873)
(-0.362326 -0.0522966 -1.85133e-06)
(-0.435354 -0.062837 -2.1374e-05)
(-0.390425 -0.0563522 2.34551e-18)
(-0.43854 -0.063297 -3.88307e-05)
(-0.371843 -0.0536702 -1.30789e-05)
(-0.362198 -0.0522782 5.02325e-06)
(-0.388017 -0.0560047 -1.60239e-05)
(-0.334586 1.31712e-07 1.7088e-06)
(-0.289634 0.00013556 0.00375225)
(-0.283034 0.000123203 0.00259163)
(-0.282272 0.000131145 0.00349272)
(-0.281975 0.000122524 0.00258156)
(-0.323765 -0.000601272 -0.0050129)
(-0.277826 0.000122817 0.00260271)
(-0.288793 0.00012671 0.00433757)
(-0.28239 0.000125079 0.00413247)
(-0.285672 0.000124306 0.00261154)
(-0.289227 0.000107413 0.00201071)
(-0.292147 0.000136137 0.00391978)
(-0.295012 0.000128275 0.00269446)
(-0.345078 0.000208296 0.00618471)
(-0.30058 0.000122693 0.00262909)
(-0.349388 -4.55374e-07 -5.9114e-06)
(-0.302707 0.000130253 0.00274688)
(-0.292927 0.000125468 0.00457043)
(-0.296364 0.000128291 0.00269708)
(-0.289351 0.000126417 0.00438162)
(-0.291448 0.000125495 0.00451547)
(-0.286427 0.000121319 0.00453728)
(-0.287206 0.000122599 0.00450048)
(-0.343932 7.42165e-05 0.00792814)
(-0.2918 0.000124646 0.00457387)
(-0.344661 6.20232e-05 0.00754957)
(-0.371098 -0.0535628 -5.20681e-06)
(-0.360187 -0.051988 -6.92174e-06)
(-0.360023 -0.0519642 -9.15334e-06)
(-0.37067 -0.0535008 1.8009e-05)
(-0.347497 -0.0013521 -0.00869404)
(-0.355376 -0.0512934 -7.49767e-06)
(-0.342926 -0.00515007 -0.018107)
(-0.344027 -0.049678 1.68767e-06)
(-0.344006 -0.0496194 -2.20921e-06)
(-0.361376 -0.0501015 3.35593e-06)
(-0.361628 -0.0502435 8.30533e-06)
(-0.385539 -0.0534929 1.17173e-05)
(-0.401235 -0.047 -0.0330482)
(-0.328301 -0.00570858 0.0288921)
(-0.320675 0.000145323 0.00455893)
(-0.338825 2.59456e-05 0.00826035)
(-0.368347 -0.0511156 -5.82724e-07)
(-0.384763 -0.0533849 -7.45512e-18)
(-0.314228 0.000134155 0.00492307)
(-0.334459 -0.00181084 0.0187388)
(-0.351758 -0.0488066 -1.00744e-05)
(-0.351772 -0.0488159 -1.01446e-05)
(-0.336137 -0.00148853 0.0174976)
(-0.357176 -0.0494882 1.30237e-05)
(-0.285006 -0.00424837 -0.00189132)
(-0.284594 0.00439217 0.00194127)
(-0.280373 0.0042204 0.00182587)
(-0.283947 0.0043863 0.00191556)
(-0.336908 -0.0046896 -0.00255215)
(-0.329281 -0.00486058 -0.00264406)
(-0.32378 0.00440892 0.00240638)
(-0.336188 0.0047534 0.00258937)
(-0.277678 -0.00492905 -0.00184827)
(-0.285115 -0.00500572 -0.00188225)
(-0.351833 -0.00663539 -0.00247535)
(-0.296265 -0.00526553 -0.00199506)
(-0.275131 -0.0048979 -0.00183676)
(-0.300114 -0.00533354 -0.00202207)
(-0.336014 -0.00598638 -0.00226749)
(-0.288752 0.00511613 0.00197872)
(-0.28894 -0.00489838 -0.00186305)
(-0.39831 -0.00730328 -0.00273527)
(-0.353614 0.00691887 0.00258988)
(-0.335961 0.00621102 0.00230576)
(-0.298503 0.00534933 0.00195206)
(-0.285015 0.00507019 0.00195649)
(-0.27624 0.00489697 0.00187796)
(-0.33972 0.00626381 0.00234532)
(-0.340051 -0.00604518 -0.00229106)
(-0.304812 0.0154649 0.00670445)
(-0.339494 0.00498076 0.00220616)
(-0.318587 0.00449254 0.00243318)
(-0.289171 0.00393974 0.00230875)
(-0.286315 0.00388699 0.00226608)
(-0.34553 0.00515495 0.00228831)
(-0.286309 0.0149544 0.00611483)
(-0.400562 0.0220283 0.00992205)
(-0.38753 0.0133454 0.0121832)
(-0.327643 0.0124677 0.0111456)
(-0.36566 0.0201631 0.00908804)
(-0.288254 0.00539836 0.0020123)
(-0.282923 0.00507866 0.00185405)
(-0.293837 0.00523287 0.00190857)
(-0.271315 0.00472117 0.00181721)
(-0.280019 0.00498939 0.0018191)
(-0.393026 0.0263481 0.00931097)
(-0.328107 0.0183204 0.00702236)
(-0.342863 0.0219811 0.0076929)
(-0.275059 0.0178288 0.00643622)
(-0.360804 0.0319253 0.0255731)
(-0.360691 0.0319412 0.0255628)
(-0.361119 0.0319472 0.0256308)
(-0.351697 -0.050646 -0.0021984)
(-0.350786 -0.0505238 0.00294269)
(-0.356585 -0.0411616 -4.67954e-06)
(-0.475188 -0.052586 0.0437696)
(-0.375998 -0.0526692 0.00318668)
(-0.38907 -0.053999 2.47791e-05)
(-0.472019 -0.0526773 0.0428556)
(-0.36232 -0.0036204 0.0235758)
(-0.458408 0.00446802 0.0621657)
(-0.300249 -0.00591544 0.0378253)
(-0.35962 -0.00447056 0.0282019)
(-0.464935 0.0230857 0.00690786)
(-0.388131 -0.00221311 0.0240087)
(-0.452482 0.0224622 0.00673745)
(-0.564393 0.0272146 0.00689763)
(-0.391227 0.00164977 0.00392017)
(-0.387553 0.00160147 0.00390264)
(-0.423842 0.0202915 0.00648223)
(-0.445664 0.0221206 0.00661975)
(-0.474482 0.0235418 0.00704885)
(-0.389317 -0.00204603 0.0239277)
(-0.391917 0.0016585 0.00392829)
(-0.390088 -0.000273977 0.0060332)
(-0.454884 0.0062693 -0.0138843)
(-0.337785 0 1.57402e-17)
(-0.331953 0 -3.23209e-17)
(-0.335519 -4.81863e-05 1.99662e-05)
(-0.44562 5.75173e-05 0.0408551)
(-0.334344 0 -1.59695e-17)
(-0.424814 -0.0268679 0.0359516)
(-0.327856 -0.000121456 -0.00360761)
(-0.329134 -0.000881545 0.000357978)
(-0.269133 0.00440047 0.00123798)
(-0.324929 0.00672718 0.00221074)
(-0.333553 0.00776155 0.00251895)
(-0.497421 -0.05823 -0.041031)
(-0.469108 0.0130451 0.0043443)
(-0.336664 -0.00767228 -0.00253475)
(-0.392721 -0.00481858 0.00372427)
(-0.27725 0.00033557 -0.000155842)
(-0.348472 -0.00802669 -0.00264987)
(-0.324553 0.00555864 -0.00266382)
(-0.331175 0.00561142 -0.0026903)
(-0.310762 0.0217047 0.00692211)
(-0.277921 0.018785 0.00669513)
(-0.278882 0.0184548 0.005916)
(-0.316019 0.0223475 0.00726268)
(-0.382035 0.0280073 0.00848702)
(-0.296381 0.0196122 0.00628101)
(-0.383126 0.0269204 0.00926112)
(-0.364938 0.0254 0.00799507)
(-0.295267 0.00493927 -0.00229634)
(-0.309502 0.00437474 -0.00224096)
(-0.318462 0.0138525 -0.0100292)
(-0.346036 0.0043513 -0.00320677)
(-0.285666 0.00446571 -0.00215601)
(-0.301379 0.0133168 -0.0100975)
(-0.316475 0.0147012 -0.00995789)
(-0.330292 0.0148428 -0.0104035)
(-0.30825 0.0403399 0.0109365)
(-0.384248 0.017768 -0.00087516)
(-0.453425 0.0537956 -0.0242449)
(-0.308479 0.0276414 -0.0216937)
(-0.386924 0.0413222 -0.0270173)
(-0.372645 0.0383659 -0.0231132)
(-0.368153 0.0384154 -0.0234477)
(-0.367664 0.0385289 -0.0235926)
(-0.395487 0.0363427 -0.0435928)
(-0.3764 0.036679 -0.0371381)
(-0.355041 0.0193841 -0.0176777)
(-0.384411 0.017668 -0.000779449)
(-0.371385 0.0194157 -0.013613)
(-0.566175 0.0282891 0.00279972)
(-0.378835 0.0182434 0.00247163)
(-0.392008 0.00205671 0.00223959)
(-0.427012 0.0210451 0.00227058)
(-0.392282 0.00235368 0.000110379)
(-0.368112 0.0176912 0.000835864)
(-0.37803 0.0177008 -0.000598805)
(-0.403207 0.01895 -0.00140482)
(-0.392681 0.00205919 0.00300289)
(-0.365732 0.0183816 -0.0075532)
(-0.377667 0.0181618 -0.00191474)
(-0.372449 0.0204391 -0.0189768)
(-0.370956 0.0115801 -0.0118294)
(-0.403292 0.0185404 -0.000812873)
(-0.388785 0.020283 -0.0112462)
(-0.344184 0.0118126 -0.0390915)
(-0.318096 -0.00893529 0.00955083)
(-0.311247 -0.00827907 0.01982)
(-0.317007 -0.0022203 0.00283297)
(-0.320675 -0.00224319 0.00286215)
(-0.27788 -0.00146112 0.00278861)
(-0.388437 -0.00782746 0.0105171)
(-0.28365 -0.00427549 0.00836298)
(-0.316542 -0.0072265 0.00917877)
(-0.329042 -0.00173068 0.00330346)
(-0.288459 -0.00419135 0.00799887)
(-0.279893 -0.00145871 0.00278372)
(-0.281766 -0.00141593 0.00268314)
(-0.334149 0.00180931 -0.00346811)
(-0.334975 -0.00172076 0.00326491)
(-0.281648 0.00152866 -0.00292828)
(-0.282299 -0.00141267 0.00267576)
(-0.332284 -0.00173313 0.00330808)
(-0.33425 -0.00170993 0.00325217)
(-0.330963 0.0115668 -0.0112353)
(-0.30757 0.0102188 -0.010087)
(-0.334034 0.00834644 -0.0105692)
(-0.272877 0.00248878 -0.0049331)
(-0.333747 0.00182799 -0.00350372)
(-0.329146 0.00173923 -0.00335007)
(-0.281228 0.0015112 -0.00290005)
(-0.277923 0.00143457 -0.00277118)
(-0.279784 0.00480356 -0.00928969)
(-0.322962 0.00333482 -0.00636888)
(-0.323295 0.00894334 -0.0110049)
(-0.291723 0.012295 -0.0137657)
(-0.370438 0.0213851 -0.0255242)
(-0.297355 0.00854198 -0.0232934)
(-0.27208 0.00467 -0.00903047)
(-0.32348 0.00944494 -0.0262997)
(-0.388667 -0.0105098 0.0256515)
(-0.261756 8.50158e-05 -0.000561045)
(-0.346249 0.00920094 -0.0266027)
(-0.320396 0.00601415 -0.0260084)
(-0.401866 0.0102421 -0.0296802)
(-0.387786 0.00727954 -0.0314769)
(-0.400667 0.00679555 -0.0326799)
(-0.321347 0.000127076 -0.0045351)
(-0.298291 0.0160419 0.0234432)
(-0.293257 0.00307162 0.0216208)
(-0.270732 -0.00246793 0.0175771)
(-0.274653 -0.00245742 0.0177995)
(-0.284042 -0.00257703 0.0183895)
(-0.455203 -0.0605951 -0)
(-0.322174 -0.00334427 0.0139986)
(-0.341464 0.000160621 -0.00420568)
(-0.343408 0.000158108 -0.0037457)
(-0.36371 0.0197392 0.030297)
(-0.35973 -0.0415315 9.93406e-06)
(-0.503844 -0.0581643 -7.4719e-06)
(-0.4938 -0.0570319 3.33622e-05)
(-0.341733 -0.039456 3.31076e-06)
(-0.402419 -0.0464733 5.0329e-07)
(-0.403368 0.00939807 0.0563969)
(-0.496585 -0.0573464 1.06538e-05)
(-0.409 -0.0203262 -0.0542647)
(-0.26611 0 0)
(-0.275312 0 -2.73072e-17)
(-0.343897 0.000154629 -0.00427238)
(-0.267224 8.87379e-05 0.00317625)
(-0.282681 -0.00438006 -0.00193324)
(-0.33384 -0.00540012 -0.0022554)
(-0.304607 0.0167864 0.00756457)
(-0.327405 0.0155388 0.00691801)
(-0.397798 0.00613619 0.00271954)
(-0.350003 0.00538289 0.0023688)
(-0.286881 0 -2.38502e-17)
(-0.286406 0.000129462 0.00400997)
(-0.279757 0.000117566 0.00441566)
(-0.277488 6.60471e-05 0.00597766)
(-0.469782 -0.0163286 0.0460928)
(-0.319172 3.40533e-05 -0.000472293)
(-0.333316 5.25311e-05 -0.000752173)
(-0.362593 -0.0082553 -0.00286542)
(-0.315766 -0.0110841 -0.00395993)
(-0.346619 0.0208286 0.00749296)
(-0.351551 0.0284524 0.00903556)
(-0.359702 0.0270066 0.00885963)
(-0.358234 0.0262423 0.0082048)
(-0.272472 0.0157248 0.00514167)
(-0.312809 0.0231108 0.00815289)
(-0.348449 0.0473843 0.00942035)
(-0.350016 0.0464985 0.0100658)
(-0.346988 0.0466057 0.00979934)
(-0.322177 0.0426509 0.01026)
(-0.362757 -0.0211192 0.0343144)
(-0.326213 0.0245124 -0.0391827)
(-0.436122 0.0216915 -0.0590503)
(-0.31687 0.00934429 -0.039878)
(-0.328023 0.0113576 -0.0374227)
(-0.290729 0.00928446 -0.0353015)
(-0.392216 0.0103307 -0.0438103)
(-0.340297 0.00688753 0.0153792)
(-0.288075 -0.00178617 0.0183467)
(-0.327808 -0.0022224 0.0160811)
(-0.327293 -0.00322409 0.0208771)
(-0.402718 -0.0039664 0.0256781)
(-0.283817 -0.00258616 0.0183762)
(-0.404677 -0.00397784 0.025919)
(-0.299849 -0.00404043 0.0251402)
(-0.300922 -0.0057709 0.0380782)
(-0.292372 -0.00549909 0.0371436)
(-0.281299 0 0)
(-0.284328 0 -1.37691e-17)
(-0.281789 0 1.21685e-17)
(-0.280914 0 1.05472e-17)
(-0.285261 0 -3.26805e-18)
(-0.284539 0 2.12734e-18)
(-0.267267 0 0)
(-0.369914 0 1.05652e-17)
(-0.402576 -0.0535784 3.30075e-05)
(-0.343489 -3.88868e-05 -0.00211754)
(-0.322892 -0.00738836 -0.0292889)
(-0.360211 0 -1.22122e-17)
(-0.450665 0.0599543 -5.50246e-05)
(-0.409243 0.0500415 0.024705)
(-0.327827 0.00749744 -0.0297424)
(-0.344815 0 1.27517e-17)
(-0.346342 0 -6.29275e-18)
(-0.336979 -0.00203052 -0.0375721)
(-0.34717 0 -1.61326e-17)
(-0.381081 0 -1.47444e-17)
(-0.344938 0 -1.59608e-17)
(-0.380915 0 7.98287e-18)
(-0.437111 -0.0546419 0.0253144)
(-0.442362 0.0144369 -4.04556e-05)
(-0.413114 0.0117289 0.0243287)
(-0.342579 0.00207936 0.0381958)
(-0.422834 0 0)
(-0.35855 0 1.06733e-17)
(-0.338282 0.000130926 0.00260977)
(-0.408212 0.000174294 0.0040374)
(-0.329032 -0.00252714 -0.0111081)
(-0.425728 -0.0614478 -2.7017e-05)
(-0.36762 -0.00976635 0.0265486)
(-0.283822 0.00012581 0.00274424)
(-0.280001 0.000117921 0.00314128)
(-0.345323 -0.000156327 -0.0101242)
(-0.350792 0.000109473 -0.00665707)
(-0.38204 0.000172191 -0.00474764)
(-0.286586 0.000124773 0.00262443)
(-0.334804 0.000152585 0.00405521)
(-0.310959 4.39188e-06 0.000272433)
(-0.34137 -0.029826 0.0189925)
(-0.341244 -0.00827818 -0.000586722)
(-0.583297 -0.0696899 0.0901769)
(-0.285533 0.000128362 0.00285141)
(-0.286509 0.000128969 0.00286222)
(-0.35459 -0.00170278 -0.0189517)
(-0.33103 -0.0069235 -0.030839)
(-0.4592 -0.0267101 0.0544324)
(-0.490695 -0.0572568 0.0407715)
(-0.35724 -0.0515593 -2.49787e-05)
(-0.357269 -0.0515698 -7.19068e-06)
(-0.454622 -0.0656185 9.81625e-06)
(-0.387999 -0.0560017 1.83696e-07)
(-0.366322 -0.0524595 0.00356358)
(-0.347242 -0.0501798 2.5578e-06)
(-0.382615 -0.055225 -3.52095e-05)
(-0.472992 -0.057919 -0.033868)
(-0.344035 0.000150103 0.00316645)
(-0.288074 0.000125386 0.00263257)
(-0.286412 0.000124548 0.00261538)
(-0.267454 9.91051e-05 0.00216278)
(-0.275595 5.52068e-05 0.00151935)
(-0.276295 0.000104016 0.00228184)
(-0.283046 0.000120888 0.00443543)
(-0.277535 0.000118537 0.00435032)
(-0.284725 0.000121547 0.00446178)
(-0.345947 0.000150552 0.00316092)
(-0.2895 0.000125938 0.00264492)
(-0.288974 0.000125795 0.00264014)
(-0.268064 0.0001277 0.00320653)
(-0.333187 -0.00800867 -0.0224778)
(-0.373681 -0.00898277 -0.0252166)
(-0.30855 0.000131817 0.00483693)
(-0.320671 0.000136953 0.0050261)
(-0.303823 0.00012973 0.00476208)
(-0.288655 0.000131637 0.00298986)
(-0.289275 0.00013133 0.00298996)
(-0.290254 0.000135413 0.00385621)
(-0.344208 0.000147051 0.00539363)
(-0.33486 2.76877e-05 0.00812401)
(-0.30527 0.000130387 0.0047846)
(-0.369861 -0.00202088 0.0211859)
(-0.351922 0.000108309 0.00737632)
(-0.384052 -0.0468816 0.0277486)
(-0.444107 -0.0641002 6.82568e-06)
(-0.43163 -0.0612759 -0.0112246)
(-0.445258 -0.0346918 -0.0431022)
(-0.462247 -0.0564972 0.033022)
(-0.49268 -0.0601827 0.0354655)
(-0.351091 -0.00702831 -0.0216851)
(-0.50186 -0.072436 -2.35712e-05)
(-0.496301 -0.0716342 4.57517e-05)
(-0.37851 -0.00847984 0.0360459)
(-0.327597 3.78333e-05 0.000484921)
(-0.459 -0.0431009 -0.0499753)
(-0.312456 0.000131197 0.00499129)
(-0.329799 -0.00717583 0.0309866)
(-0.49839 0.0002128 0.00780885)
(-0.353948 -0.000266566 0.0116123)
(-0.335341 -0.00684371 0.0308669)
(-0.284928 -0.00268646 -0.00119546)
(-0.337176 -0.00525626 -0.00222161)
(-0.277858 0.00443165 0.00197327)
(-0.318737 -0.00422348 -0.00248297)
(-0.323058 -0.00429794 -0.00252531)
(-0.313068 0.00432645 0.00252081)
(-0.299438 0.00400248 0.00231939)
(-0.332217 -0.00292067 -0.00171636)
(-0.274945 -0.00358642 -0.00218481)
(-0.278238 -0.00261387 -0.00156998)
(-0.328966 -0.00435006 -0.00255657)
(-0.351362 0.00575657 0.00216674)
(-0.282163 0.0155519 0.00700066)
(-0.307385 0.0169191 0.00762808)
(-0.284366 0.00379988 0.0021995)
(-0.286971 0.00378274 0.00219222)
(-0.415618 0.0217146 0.00886581)
(-0.351442 0.0161564 0.00607977)
(-0.338881 0.020706 0.00780084)
(-0.343163 0.00557518 0.0020935)
(-0.289154 0.0173365 0.00632492)
(-0.385253 0.0229999 0.0082006)
(-0.352386 0.0219069 0.00705083)
(-0.365832 -0.232988 -0.0931074)
(-0.347317 0.0323957 0.0608964)
(-0.436203 0.0715949 -0.00414713)
(-0.529559 -0.061149 1.58149e-05)
(-0.46517 -0.0476332 -0.0372106)
(-0.340049 0.0197005 0.00660691)
(-0.50251 -0.0580305 -1.54755e-05)
(-0.336289 0.000644272 0.000194774)
(-0.28941 0 1.00302e-17)
(-0.287835 0.000125336 0.00263124)
(-0.289893 2.60884e-05 0.00191771)
(-0.28559 0 -1.32765e-17)
(-0.394536 0.0334326 0.0154977)
(-0.288629 0 -3.49161e-18)
(-0.410541 -0.0431362 0.0303565)
(-0.467186 -0.0494121 0.0327024)
(-0.498575 -0.0575817 1.19672e-06)
(-0.437201 -0.051232 0.0359751)
(-0.462879 -0.0410903 0.0522469)
(-0.457842 0.0146692 0.0436649)
(-0.367177 0.0357967 -0.0261236)
(-0.330359 9.12857e-06 -0.000972402)
(-0.318754 -0.000291431 0.00378219)
(-0.323239 0.000268811 -0.00458966)
(-0.437778 -0.0426647 -0.0310793)
(-0.273581 -0.00406132 -0.00144425)
(-0.345092 -0.00744369 0.00127422)
(-0.334016 -0.00810522 0.00118872)
(-0.323983 0.00631999 -0.000730256)
(-0.345879 -0.00246578 -0.000793633)
(-0.348462 -0.00774358 0.00138957)
(-0.356272 -0.00647874 0.00120265)
(-0.409594 -0.0452389 0.0344322)
(-0.273798 0.000118901 -0.00432962)
(-0.317559 -8.69742e-07 1.13139e-05)
(-0.299596 0.000128975 -0.00471903)
(-0.313027 0.000137715 -0.00478434)
(-0.292151 0.000124526 -0.00264096)
(-0.291146 9.02591e-05 -0.00568096)
(-0.309697 9.31583e-05 -0.00541475)
(-0.300443 0.000129916 -0.00436943)
(-0.286526 0.000128283 -0.00433876)
(-0.270356 -0.00592895 -0.00214455)
(-0.282751 -0.00641073 -0.00217276)
(-0.338574 -0.00730766 0.000203145)
(-0.320416 -0.0103079 -0.000828717)
(-0.286555 0.00625385 0.00236487)
(-0.342802 0.0075153 0.00262949)
(-0.298841 0.00633832 0.00241223)
(-0.342315 -0.00745331 0.000321292)
(-0.326448 -0.00746632 -0.00245758)
(-0.3506 -0.00792108 0.000592716)
(-0.428303 -0.0101509 -0.00302835)
(-0.412841 0.0136405 -0.00123788)
(-0.387714 0.00873006 0.00307151)
(-0.276964 -0.0037945 0.00247165)
(-0.311668 0.0238941 0.00746599)
(-0.285333 0.0210786 0.00744442)
(-0.290579 0.0216415 0.00653161)
(-0.365351 0.00828885 -0.000684924)
(-0.327064 0.00752372 0.0026504)
(-0.351507 0.00794189 -0.000460295)
(-0.326621 0.0264106 0.00237901)
(-0.312772 0.023912 0.00711987)
(-0.330854 -0.00777722 0.0220344)
(-0.413539 -0.00299447 0.0150889)
(-0.365373 0.0514871 0.00947691)
(-0.390096 0.0460302 0.0059143)
(-0.394702 0.0364849 -0.0279824)
(-0.429238 0.025271 -0.0535404)
(-0.363687 0.0195069 -0.0473428)
(-0.313389 -0.00404325 0.0110695)
(-0.34685 -0.00483911 0.0130434)
(-0.278622 -0.00180418 0.00233836)
(-0.28486 0.00199842 -0.00264223)
(-0.284124 0.00199263 -0.00260904)
(-0.335327 -0.00129286 0.00379254)
(-0.385353 0.0314899 -0.0295498)
(-0.27898 0.00193155 -0.00246451)
(-0.282665 0.00195242 -0.00252664)
(-0.392882 0.00525703 -0.0158529)
(-0.313467 0.00890336 -0.0237609)
(-0.319136 0.00982914 -0.0250524)
(-0.284916 0.00869586 -0.0233248)
(-0.385555 0.0109463 -0.0292054)
(-0.343986 -0.00354022 0.0121833)
(-0.283965 -0.00105884 0.00358047)
(-0.29042 0.00102966 -0.00353561)
(-0.289897 -0.00102498 0.00340513)
(-0.38978 0.00956226 -0.0320062)
(-0.281449 0.00713634 -0.0224313)
(-0.280421 0.00519614 -0.0235971)
(-0.287456 0.000996882 -0.00352217)
(-0.26751 0.00268227 -0.0110783)
(-0.337785 0.00436338 -0.013371)
(-0.373587 0.0113225 0.0434804)
(-0.374058 0.0116216 0.0428236)
(-0.337836 -0.00681911 -0.00252987)
(-0.283726 -0.00574339 -0.00209229)
(-0.352556 -0.00692533 -0.00257925)
(-0.271104 -0.00556298 -0.00204933)
(-0.28824 -0.00582156 -0.00211928)
(-0.399959 -0.00792073 -0.0029804)
(-0.332683 -0.00685741 -0.0025446)
(-0.331827 0.00655188 0.00243548)
(-0.285004 0.00555652 0.00207666)
(-0.354251 0.00676619 0.00246585)
(-0.277756 0.00570448 0.00208185)
(-0.275105 0.00557177 0.00202463)
(-0.282699 0.00553315 0.00204463)
(-0.34756 0.00660698 0.00240835)
(-0.335851 0.00671228 0.00249554)
(-0.313472 0.00399536 -0.00293607)
(-0.31069 0.00398123 -0.00293139)
(-0.316163 0.00217933 0.00483335)
(-0.322511 0.00221061 0.00489111)
(-0.386558 0.00262588 0.00578522)
(-0.280012 0.00128382 0.00405038)
(-0.318309 0.00323631 0.00349506)
(-0.272097 0.00188706 0.00415143)
(-0.284476 0.0017429 0.00533301)
(-0.374406 0.0066 0.00663461)
(-0.281641 0.00186928 0.00417211)
(-0.280019 0.00185932 0.00414994)
(-0.334887 0.00226763 0.0050361)
(-0.274558 0.00126457 0.0045449)
(-0.273581 0.00123701 0.00453972)
(-0.361827 0.0201594 0.0280669)
(-0.302944 0.0168956 0.0228997)
(-0.294242 0.000369039 0.00538231)
(-0.294485 -0.000246068 0.0054118)
(-0.288375 0.00035625 0.00525486)
(-0.290397 0.000361571 0.00529831)
(-0.292608 0.000366965 0.00535172)
(-0.290246 0.000359782 0.00529765)
(-0.294018 -0.00025189 0.00540596)
(-0.292828 0.000367316 0.00535682)
(-0.292735 -0.000823319 0.00550598)
(-0.303038 -0.00085273 0.00570266)
(-0.299487 -0.000841648 0.00562887)
(-0.294092 -0.000826714 0.0055281)
(-0.290543 0.00036128 0.0053032)
(-0.291974 -0.000275229 0.00536305)
(-0.285386 0.000351999 0.00519399)
(-0.289872 0.000359894 0.00529294)
(-0.287491 0.000354535 0.00523474)
(-0.284561 0.00035116 0.00518239)
(-0.292588 -0.000269474 0.00537847)
(-0.29241 0.000366744 0.0053488)
(-0.26485 -0.00126534 0.0154234)
(-0.304957 0.0017142 0.0183804)
(-0.297609 0.00181267 0.0181279)
(-0.325577 0.00206285 0.0198222)
(-0.403225 0.00243005 0.0247284)
(-0.283058 -0.000795437 0.00532209)
(-0.286625 -0.000805888 0.00534293)
(-0.288885 -0.000810416 0.00539685)
(-0.279734 -0.000785576 0.00525169)
(-0.279442 -0.00270819 0.0179407)
(-0.300493 -0.002954 0.0192881)
(-0.291195 -0.00281491 0.0188181)
(-0.287446 -0.00257309 0.0186338)
(-0.307771 -0.00278074 0.0199265)
(-0.294312 -0.00266794 0.0190673)
(-0.328049 -0.00317659 0.0210973)
(-0.331201 -0.0032 0.021411)
(-0.303653 -0.00293535 0.0196359)