/*--------------------------------*- C++ -*----------------------------------*\
  =========                 |
  \\      /  F ield         | OpenFOAM: The Open Source CFD Toolbox
   \\    /   O peration     | Website:  https://openfoam.org
    \\  /    A nd           | Version:  10
     \\/     M anipulation  |
\*---------------------------------------------------------------------------*/
FoamFile
{
    format      ascii;
    class       volVectorField;
    location    "0";
    object      wallShearStress;
}
// * * * * * * * * * * * * * * * * * * * * * * * * * * * * * * * * * * * * * //

dimensions      [0 2 -2 0 0 0 0];

internalField   uniform (0 0 0);

boundaryField
{
    inlet
    {
        type            calculated;
        value           nonuniform List<vector> 0();
    }
    outlet
    {
        type            calculated;
        value           nonuniform List<vector> 0();
    }
    walls
    {
        type            calculated;
        value           nonuniform List<vector> 0();
    }
    drone
    {
        type            calculated;
        value           nonuniform List<vector> 
13275
(
(-0.451394 0.0106316 0.0300827)
(-0.512765 0.101366 0.0672799)
(-0.448275 0.00621026 0.0432466)
(-0.45328 0.140808 0.000952992)
(-0.460663 0.146848 0.00630216)
(-0.27601 -0.00012021 0.0025244)
(-0.43933 0.0991384 -0.00877692)
(-0.453635 0.0105623 -0.00482417)
(-0.414308 0.0434274 -0.00826685)
(-0.42082 0.0497492 0.0167332)
(-0.359854 -0.144362 -0.10755)
(-0.457473 -0.0777787 -0.0994911)
(-0.440592 -0.0171253 -0.0572984)
(-0.373391 -0.0298445 -0.0418479)
(-0.434825 0.00649671 -0.0700447)
(-0.346701 -0.000655863 0.0487581)
(-0.444252 0.102399 0.111535)
(-0.434916 0.0477399 0.0264439)
(-0.279252 -0.000121523 0.00255083)
(-0.442418 -0.0176523 -0.0591617)
(-0.459923 -0.000959211 -0.00345922)
(-0.456068 -0.00614196 -3.15174e-05)
(-0.435747 0.0596822 -0.00248971)
(-0.423794 0.0169937 -0.125843)
(-0.449222 0.00919766 -0.118062)
(-0.431578 0.137304 0.019423)
(-0.432903 0.0904807 -0.00949249)
(-0.339207 0.0143219 -0.00152576)
(-0.352219 0.0242125 -0.00761593)
(-0.458012 0.00241602 -0.00445147)
(-0.337738 -0.0126169 0.00612542)
(-0.366128 -0.0227293 -0.00436467)
(-0.322929 -0.00569072 0.0192758)
(-0.31418 0.0290874 -0.0608083)
(-0.366317 0.0119013 2.33796e-17)
(-0.38627 0.110428 -0.11404)
(-0.360859 0.0217438 -0.0392649)
(-0.340965 -0.00116016 -7.24754e-05)
(-0.339248 0.0105552 0.000826901)
(-0.343437 0.0348914 0.00642625)
(-0.318173 0.0116639 0.0017854)
(-0.304926 0.000295158 -0.0408734)
(-0.462961 -0.0483415 -0.0678658)
(-0.464367 0.0449708 0.0741533)
(-0.322061 -0.0101807 0.0290854)
(-0.329682 0.000556282 0.0119565)
(-0.338834 -0.00858052 -0.000226213)
(-0.424309 -0.0357651 0.0132485)
(-0.472496 0.0849088 0.0467408)
(-0.437692 0.0779261 7.0892e-05)
(-0.458188 -0.0785428 -0.099641)
(-0.44106 -0.0173466 -0.0577041)
(-0.440565 -0.0171582 -0.0574931)
(-0.46191 -0.0760319 -0.100413)
(-0.442502 -0.0175553 -0.0590361)
(-0.458581 -0.0761174 -0.101378)
(-0.458098 -0.0757468 -0.10134)
(-0.442507 -0.0176312 -0.0591385)
(-0.360837 -0.0427186 0.0369889)
(-0.459858 -0.00166821 -0.00486067)
(-0.422979 -0.0378883 -0.0040115)
(-0.428801 -0.00960876 0.0790925)
(-0.402686 0.111464 0.0507561)
(-0.504556 -0.0623752 0.142062)
(-0.34137 0.00051345 3.39573e-05)
(-0.341315 0.000659168 3.9797e-05)
(-0.342742 -0.0384263 -0.00236245)
(-0.425175 -0.000192183 -0.00653303)
(-0.436887 -0.0191673 -0.0557151)
(-0.402056 -0.0176809 -0.045414)
(-0.313143 -0.0130043 0.0296328)
(-0.405662 0.0115976 0.0546236)
(-0.428511 0.0608296 0.0111605)
(-0.390765 -0.00756143 -0.0141125)
(-0.304327 -0.00588411 -0.0109856)
(-0.38272 0.0468022 0.0274571)
(-0.3049 -0.026702 0.0139734)
(-0.353989 -0.0355191 0.0152471)
(-0.372108 -0.0122972 -0.0374438)
(-0.344968 0.0069787 -0.0317391)
(-0.477737 -0.0406428 0.0368961)
(-0.476137 0.0246346 -0.0243398)
(-0.391986 0.112997 -0.143768)
(-0.373426 -0.0326185 0.0164847)
(-0.308092 -0.0273973 0.013127)
(-0.385217 -0.0330554 0.0313822)
(-0.318151 -0.00011381 0.00396431)
(-0.288244 -0.000125427 0.00263351)
(-0.288981 -0.000126157 0.00266237)
(-0.409337 0.0470118 -0.0328508)
(-0.424935 0.00120872 0.0176343)
(-0.373018 0.00575343 0.0314784)
(-0.348689 -0.00015199 0.00319121)
(-0.26749 -0.000294087 -0.0063059)
(-0.428287 -5.30734e-05 0.0103502)
(-0.304875 -0.00595809 0.0235824)
(-0.370958 0.0013789 0.0187313)
(-0.378132 -0.00241475 0.0166124)
(-0.319679 0.000203263 -0.00241803)
(-0.285744 -0.000128015 0.00288845)
(-0.28659 -0.000124815 0.00262983)
(-0.284742 0 -1.32973e-17)
(-0.284389 0 0)
(-0.343702 0 -1.59131e-17)
(-0.337102 -0.000158446 -0.00416025)
(-0.344464 0 3.19e-17)
(-0.344886 0 0)
(-0.331075 -0.00015559 -0.00408246)
(-0.347297 0 2.30988e-18)
(-0.359433 -0.0123053 -0.0464093)
(-0.292811 -0.00985352 -0.0377925)
(-0.385733 -0.0337815 0.017676)
(-0.430236 -0.0285787 0.00504705)
(-0.483555 -0.0706907 0.0202185)
(-0.342141 -0.0125633 -0.0436985)
(-0.484445 -0.0508228 0.019275)
(-0.282386 0 -2.62311e-18)
(-0.391081 -0.0112108 0.00596573)
(-0.344043 -0.00014957 -0.00326758)
(-0.386368 0.000181173 0.0182856)
(-0.392268 -0.00126401 0.00378082)
(-0.390828 0.00015731 0.00982681)
(-0.39249 -0.00126814 0.00377968)
(-0.389105 -0.00549753 0.00485489)
(-0.392257 -0.00129088 0.00380002)
(-0.391295 0.000157223 0.00690802)
(-0.393898 -0.0013243 0.00396341)
(-0.317734 -0.011592 0.0171202)
(-0.276664 -0.00713665 0.00389341)
(-0.382192 0.0529039 0.000142421)
(-0.371683 0.0536472 1.8053e-05)
(-0.389283 0.0540244 7.03069e-18)
(-0.361609 0.0521759 0.000723883)
(-0.368737 0.053222 2.79765e-05)
(-0.373173 0.0517826 -1.09368e-05)
(-0.465197 0.0142389 0.0374649)
(-0.375121 0.0121597 -0.0396928)
(-0.456642 0.0633759 -2.79795e-05)
(-0.398719 -0.000179457 -0.00494537)
(-0.408427 -0.024921 -8.25724e-18)
(-0.478039 0.0155855 -5.41964e-20)
(-0.393263 -0.00178247 -3.78045e-06)
(-0.392917 -0.00150353 0.00355863)
(-0.393043 -0.00127385 0.00378779)
(-0.392531 -0.00177915 -3.77311e-06)
(-0.389109 -0.00310633 -0.00990338)
(-0.384008 -0.00324305 -0.00993679)
(-0.392925 -0.00180307 0.000124642)
(-0.392866 -0.00154745 0.00306763)
(-0.394121 -0.00156908 0.00150757)
(-0.392434 -0.00180082 1.88601e-05)
(-0.372598 -0.00314484 -0.00961637)
(-0.381785 -0.00322792 -0.00987428)
(-0.368562 -0.0337172 0.0170704)
(-0.320226 -0.00669919 -0.0122708)
(-0.282276 -0.0101393 -0.0208302)
(-0.443363 -0.0191961 -0.0228176)
(-0.285088 -0.00741819 -0.0226969)
(-0.347351 -0.00794596 -0.0305652)
(-0.382167 -0.0102629 -0.0294635)
(-0.320488 -1.81338e-06 -7.51376e-07)
(-0.373196 -0.03515 0.0364205)
(-0.376177 -0.00249788 0.0176588)
(-0.452151 0.0389304 0.0514268)
(-0.272393 -0.000107648 0.00436823)
(-0.338222 -0.000158179 -0.00415457)
(-0.333568 -0.000154198 -0.00366988)
(-0.280247 0 1.97655e-17)
(-0.313634 -0.00986621 0.00491707)
(-0.312991 -0.0100776 0.00506065)
(-0.344961 -0.00976282 0.00514646)
(-0.282163 -0.00852686 0.00446279)
(-0.320571 -0.00976568 0.00513411)
(-0.276212 -0.00833578 0.00436564)
(-0.369431 -0.036652 0.0166377)
(-0.453725 0.0531568 -0.0373533)
(-0.312943 6.46586e-06 0.000422791)
(-0.288948 -0.00696022 -0.034107)
(-0.300923 -0.00768933 -0.0395632)
(-0.393369 -0.0127696 -0.0444849)
(-0.314074 -0.00979685 -0.0351248)
(-0.397913 -0.00953302 -0.0352585)
(-0.34659 -0.00520021 -0.0169703)
(-0.29813 -0.00447529 -0.0145968)
(-0.342964 -0.00573324 -0.0178314)
(-0.37221 0.00156046 0.0227202)
(-0.378276 0.00158181 0.0230935)
(-0.39075 0.00148987 0.0242007)
(-0.380051 0.00144961 0.023532)
(-0.352325 -0.00891388 0.0238263)
(-0.359812 0.00345787 0.0290931)
(-0.468744 -0.00342281 0.0630049)
(-0.360418 -0.0091857 0.0239266)
(-0.387052 -0.00339686 0.0525882)
(-0.352154 -0.00894223 0.0239082)
(-0.377402 -0.00941731 0.024785)
(-0.466487 -0.0159568 0.0127174)
(-0.376061 -0.00603045 0.0192657)
(-0.378886 0.00158528 0.0231301)
(-0.383348 -0.0126877 0.00578221)
(-0.373603 -0.0124534 0.00491652)
(-0.392517 -0.0113427 0.00486332)
(-0.390909 0.00149325 0.0242094)
(-0.385554 -0.00956008 0.0252675)
(-0.536232 -0.0181053 0.00966413)
(-0.37492 -0.0127221 0.00688515)
(-0.408579 -0.0125965 0.00868365)
(-0.357152 -0.0117348 0.00425748)
(-0.361548 -0.02165 0.00911691)
(-0.382597 -0.0128712 0.0033244)
(-0.350398 -0.0270217 0.00791331)
(-0.380055 -0.0128978 0.00697766)
(-0.435133 -0.0147674 0.00798858)
(-0.391964 -0.0130595 0.00365582)
(-0.370317 -0.0249948 0.018692)
(-0.33161 -0.0119282 0.0172839)
(-0.380236 -0.0209825 0.019639)
(-0.370401 -0.0142061 0.0201964)
(-0.323728 -0.020434 0.0146248)
(-0.299957 -0.0213872 0.0137855)
(-0.337234 -0.00768897 0.0048443)
(-0.345951 -0.00797121 0.00504139)
(-0.371157 -0.0248326 0.0176935)
(-0.379663 -0.0298818 0.0165201)
(-0.338309 -0.0080465 0.00451989)
(-0.31692 -0.00766784 0.00425641)
(-0.458947 -0.0392616 0.0190727)
(-0.330675 -0.0254891 0.0140366)
(-0.478208 -0.0403338 0.0199731)
(-0.366027 -0.031319 0.0155432)
(-0.374689 -0.0320892 0.0155932)
(-0.345041 7.14564e-06 2.77602e-06)
(-0.242461 -0.112799 0)
(-0.504311 -0.0478138 0.0218242)
(-0.45702 -0.0433413 0.0197763)
(-0.256553 -0.1083 0)
(-0.345249 9.02214e-06 3.50378e-06)
(-0.345922 1.51397e-17 0)
(-0.292146 -0.112357 0)
(-0.347339 -1.44614e-17 0)
(-0.352908 0.0407549 4.15295e-06)
(-0.351358 0.0405761 1.84272e-06)
(-0.381207 0.052894 -1.46231e-05)
(-0.443946 0.0520066 0.0365476)
(-0.383629 0.0174537 -0.0305821)
(-0.382143 0.0528851 -2.59451e-05)
(-0.372459 0.0537591 1.49624e-05)
(-0.371972 0.0536888 -1.46739e-17)
(-0.472516 0.0578543 -0.0338539)
(-0.372388 0.0537488 -1.61543e-05)
(-0.46512 0.0569502 -0.0333056)
(-0.440193 0.0635355 2.43905e-05)
(-0.35351 -0.000292912 0.0107363)
(-0.293471 -0.000125331 0.00459963)
(-0.297445 -0.000102042 0.00218244)
(-0.357349 -2.76166e-05 0.000373617)
(-0.298512 -7.00662e-05 0.00177733)
(-0.350911 -0.00287435 0.0181924)
(-0.30239 -5.80793e-05 0.00126667)
(-0.292401 -0.000130041 0.00427777)
(-0.351832 -0.000122373 0.00225086)
(-0.295425 -0.000109722 0.00237902)
(-0.291698 -0.000124592 0.00457197)
(-0.34383 -2.41827e-08 0.00874011)
(-0.287971 -0.000123027 0.00451307)
(-0.342011 1.64319e-09 0.00869158)
(-0.291508 -0.000124522 0.00456909)
(-0.289207 -0.000123531 0.00453281)
(-0.344749 -8.79031e-05 0.0074213)
(-0.475124 0.0508968 0.0459097)
(-0.497616 0.0685731 -0.0059027)
(-0.392451 0.0460079 0.0322573)
(-0.367311 0.0509769 8.40658e-06)
(-0.367305 0.0509488 8.97978e-06)
(-0.462811 0.0637099 -0.00698981)
(-0.405798 0.0563075 2.04152e-06)
(-0.377802 0.0524217 2.9352e-06)
(-0.528153 0.0732753 -5.43525e-06)
(-0.374322 0.0519373 3.31922e-06)
(-0.36296 0.050393 -2.09723e-06)
(-0.362873 0.0503163 -2.40636e-06)
(-0.446068 0.057879 -0.0251325)
(-0.332351 1.27895e-07 -1.65842e-06)
(-0.334618 -0.000145451 0.00305523)
(-0.288281 -0.000123075 0.00451764)
(-0.274482 -0.000119661 0.0041651)
(-0.282225 -0.000123292 0.00260449)
(-0.338542 -5.55957e-05 0.000795727)
(-0.289165 -0.000129878 0.00410496)
(-0.283525 -0.000123387 0.00259027)
(-0.278641 -0.000108557 0.00371284)
(-0.356131 0.0512812 0.00350215)
(-0.366296 0.0526468 0.000116478)
(-0.387119 0.0488595 0.0260293)
(-0.34496 0.00160664 -0.00969903)
(-0.34619 -1.41603e-07 1.83631e-06)
(-0.367011 0.0529729 -1.44422e-06)
(-0.338232 0.00616138 -0.0198427)
(-0.326951 0.0471908 1.46668e-20)
(-0.342598 0.00189848 -0.0106785)
(-0.339961 -0.000145249 0.00533018)
(-0.328005 0.00445863 0.026541)
(-0.337779 0.0039398 0.0298639)
(-0.360902 0.0500688 1.1539e-05)
(-0.36089 0.0500879 5.14864e-06)
(-0.339293 -0.000145052 0.00531179)
(-0.336621 0.00100766 0.015562)
(-0.338207 -0.000145168 0.00525727)
(-0.293828 -0.000127861 0.00268411)
(-0.334895 -0.000153639 0.00477492)
(-0.314267 0.00062652 -0.00469195)
(-0.302005 -0.000130811 0.00276303)
(-0.301724 -0.000135143 0.00285487)
(-0.288499 -0.000135158 0.00365199)
(-0.290539 -0.000127419 0.00270591)
(-0.456332 0.00907559 -0.0417598)
(-0.386342 0.0130066 -0.0414089)
(-0.264472 0 3.88551e-17)
(-0.275703 0 -1.36811e-17)
(-0.273168 0 -2.25765e-17)
(-0.275624 0 -1.35936e-17)
(-0.269926 0 2.12606e-17)
(-0.28088 0 0)
(-0.2736 0 1.33442e-17)
(-0.275328 0 -2.56023e-18)
(-0.452353 0.062746 -5.56141e-06)
(-0.341893 0 -9.11116e-18)
(-0.455705 0.0632499 -2.08074e-05)
(-0.364751 -0.0001648 -0.00452941)
(-0.339589 -0.000658147 -0.00852596)
(-0.327123 0.00757763 0.0230692)
(-0.276187 0.0118013 -8.12702e-06)
(-0.278813 0.0119686 -5.14008e-20)
(-0.342673 0 6.74254e-18)
(-0.495392 0 0)
(-0.344188 0 1.59221e-17)
(-0.338874 -0.00204208 -0.0377809)
(-0.344213 0 0)
(-0.342412 0 -1.41528e-18)
(-0.33615 -0.00202787 -0.0374751)
(-0.343562 0 0)
(-0.3453 0 0)
(-0.340662 0.00227595 0.0139735)
(-0.429019 0 2.83361e-17)
(-0.446076 0.0145705 -1.57316e-05)
(-0.426899 0 -1.73946e-18)
(-0.429406 0.0173998 1.47886e-17)
(-0.328067 0.00661342 0.0239847)
(-0.432008 0.013973 -5.52656e-05)
(-0.416796 0 -1.74124e-17)
(-0.393742 -0.00178715 4.31583e-18)
(-0.392974 0.000475729 0.00363233)
(-0.393233 -0.00127089 0.0037862)
(-0.393748 -2.36248e-05 -0.000151441)
(-0.393366 -0.00178687 -7.56285e-06)
(-0.392606 -0.00190757 -0.00109448)
(-0.39329 -0.00190777 -0.00110094)
(-0.39263 -0.0017796 -3.77436e-06)
(-0.391843 -0.00102331 -0.00607652)
(-0.544024 -0.00473096 -0.0328764)
(-0.3924 -0.00263796 -0.00426624)
(-0.392708 -0.00212509 -0.00216798)
(-0.393567 -0.00191836 -0.00111062)
(-0.390061 -0.00279424 -0.00689261)
(-0.390105 -0.00167358 -0.00937544)
(-0.39142 -0.00102236 -0.00692277)
(-0.443733 -0.00698111 -0.0342745)
(-0.537803 -0.0046959 -0.0325111)
(-0.454505 -0.00820301 -0.0314764)
(-0.393711 -0.003967 0.0010483)
(-0.37717 -0.0127139 0.00318081)
(-0.393431 -0.00953757 0.00208015)
(-0.382721 -0.0125808 0.00192752)
(-0.392773 -0.00185808 -0.000495182)
(-0.392496 -0.00190467 -0.00109799)
(-0.392528 -0.00185221 -7.5437e-05)
(-0.392538 -0.0020251 -0.00116238)
(-0.407416 -0.0133807 0.00222478)
(-0.408922 -0.0134383 -0.000784713)
(-0.363001 -0.0122734 0.00309854)
(-0.373519 -0.0122778 0.00191089)
(-0.392162 -0.0128873 0.00212608)
(-0.385203 -0.0130215 0.00328154)
(-0.405277 -0.0133239 0.00216965)
(-0.393939 -0.0133225 0.00335471)
(-0.39344 -0.0129101 0.00215222)
(-0.363616 -0.0199721 0.00211208)
(-0.395221 -0.0129946 -0.000753614)
(-0.384303 -0.00324785 -0.00989826)
(-0.392506 -0.00212878 -0.00258711)
(-0.389029 -0.00278297 -0.00780206)
(-0.392117 -0.00222766 -0.00374254)
(-0.369679 -0.00311676 -0.00953283)
(-0.38773 -0.0138323 -0.010398)
(-0.408277 -0.0133343 -0.00169679)
(-0.399448 -0.0150472 -0.0529637)
(-0.377912 -0.0128277 -0.0120302)
(-0.366356 -0.0147399 0.000703098)
(-0.394923 -0.0128999 -0.00149456)
(-0.3716 -0.014297 -0.0200171)
(-0.464274 -0.0174442 -0.0191505)
(-0.30367 -0.00737825 -0.0122244)
(-0.400966 -0.0316623 -0.0385352)
(-0.334991 -0.0123795 -0.0250649)
(-0.306959 -0.0110266 -0.0226587)
(-0.385406 -0.0143556 -0.0285978)
(-0.614151 -0.0568134 0.0208849)
(-0.23904 -0.170931 0)
(-0.400688 -0.0521303 0.0154517)
(-0.428537 -0.0585288 0.0235849)
(-0.402381 -0.0560384 0.0169828)
(-0.417144 -0.0567403 0.0218636)
(-0.429131 -0.0585081 0.0236206)
(-0.530402 -0.0721593 0.0223816)
(-0.32438 -0.0130479 -0.0348351)
(-0.456793 -0.0463933 -0.042795)
(-0.451725 -0.0444513 -0.0432738)
(-0.375809 -0.034132 -0.0492756)
(-0.363281 -0.0242716 -0.0258261)
(-0.391076 -0.0217266 -0.0219148)
(-0.353596 -0.0279007 -0.0384591)
(-0.364926 -0.0256697 -0.029915)
(-0.388803 -0.0197781 -0.0206343)
(-0.323096 -0.0140344 -0.0166639)
(-0.322912 -0.0139703 -0.016592)
(-0.323096 -0.0139788 -0.0165748)
(-0.461918 -0.0459878 0.0206045)
(-0.371569 -0.0368497 0.0167158)
(-0.396142 0.0464028 -0.0326147)
(-0.32024 0.00013768 -0.00239716)
(-0.544552 0.0553116 -0.0457832)
(-0.332814 -0 1.61663e-17)
(-0.400056 0.0406945 0.0334968)
(-0.314599 0.00085693 -0.00651525)
(-0.440669 0.0164551 0.0386633)
(-0.328821 2.30221e-05 -0.00155389)
(-0.462084 -0.00446174 -0.028146)
(-0.321205 -0.00864183 -0.0424268)
(-0.419205 -0.0115691 -0.0568836)
(-0.329166 -0.00905094 -0.0457221)
(-0.455301 -0.00766856 -0.0320273)
(-0.401507 -0.00696988 -0.0459415)
(-0.347409 -0.00745349 -0.0485736)
(-0.32643 -0.0104703 -0.0368123)
(-0.401089 -0.00927582 -0.0343799)
(-0.287748 -0.00863011 -0.031429)
(-0.317237 -0.00476266 -0.0155416)
(-0.287798 -0.00432206 -0.0140987)
(-0.332056 -0.0238322 0.031525)
(-0.282829 -0.0117451 0.0267682)
(-0.391278 -0.0250303 0.0410506)
(-0.336762 -0.00978245 0.00513249)
(-0.34533 -0.00978136 0.00515013)
(-0.395517 0.0152498 0.0490206)
(-0.308763 -0.012825 0.0292242)
(-0.376962 -0.0156741 0.0357333)
(-0.46586 7.25569e-18 -4.64364e-17)
(-0.423318 0.0456824 5.0099e-05)
(-0.423103 0.0456749 -9.72706e-19)
(-0.46792 -2.32362e-17 2.16024e-17)
(-0.470751 0.0679461 -3.20713e-05)
(-0.429376 0.0619743 -1.67981e-05)
(-0.456152 0.0655444 0.00609393)
(-0.395527 0.0570885 4.50658e-05)
(-0.423508 0.0611266 0.000144283)
(-0.355125 0.00451012 -0.028108)
(-0.535177 0.0671222 -0.035897)
(-0.338522 0.00639671 -0.0304591)
(-0.455002 -0.014693 3.43615e-05)
(-0.328173 0.0104195 5.16593e-05)
(-0.424741 0.0447556 0.00135809)
(-0.470723 0.00105672 0.000996722)
(-0.342648 -0.00664259 -0.0123954)
(-0.334032 -0.00932894 -0.0141748)
(-0.286493 -0.00591555 -0.0108443)
(-0.327152 -1.7797e-07 -2.31625e-06)
(-0.29553 0.00149786 0.0376593)
(-0.298606 0.000316787 0.039601)
(-0.329165 -0.0169207 0.0164655)
(-0.314228 -0.0161556 0.0157166)
(-0.444618 -0.0381723 0.0375793)
(-0.28715 0 -8.01693e-18)
(-0.318706 0.000182685 -0.0043495)
(-0.28495 -0.000121686 0.00446607)
(-0.286866 -0.00010083 0.00381596)
(-0.273588 -2.26721e-05 0.00564938)
(-0.266416 -0.000125353 0.00560266)
(-0.404164 0.025844 0.039048)
(-0.346075 -0.000162099 -0.00425298)
(-0.356124 -0.0326174 2.0204e-17)
(-0.425009 -0.0528355 -0.0275561)
(-0.278902 -0.017364 0.00864395)
(-0.329311 -0.0210582 0.0112819)
(-0.378919 -0.0331795 0.0173517)
(-0.390359 0.01182 0.0294943)
(-0.337163 0.00887432 0.0237298)
(-0.343431 -9.28116e-05 -0.00727871)
(-0.324697 -2.85703e-05 -0.00768951)
(-0.32017 0.000638826 -0.0133634)
(-0.31523 -0.000138784 -0.00498357)
(-0.30457 0.0001244 0.00144286)
(-0.481608 0.000621372 -0.0197371)
(-0.408092 0.00701912 -0.0364291)
(-0.394384 -0.0316462 0.0424722)
(-0.397397 -0.0146338 -0.0506146)
(-0.458833 -0.0391468 0.0339697)
(-0.436523 -0.0325422 0.0201228)
(-0.381619 -0.026911 0.0177879)
(-0.299737 -0.0250794 0.0131508)
(-0.465888 0 -2.33142e-17)
(-0.403406 0.0401299 -0.030436)
(-0.446417 9.03684e-06 -0.0389208)
(-0.423107 0.0456753 1.8459e-17)
(-0.314197 -0.0269846 0.0138616)
(-0.379459 -0.0319153 0.0165691)
(-0.288065 0 6.99446e-18)
(-0.28959 0 1.18404e-17)
(-0.287721 0 4.86349e-18)
(-0.286558 0 1.49558e-17)
(-0.284268 -5.65358e-09 8.04343e-05)
(-0.289638 0 1.42632e-17)
(-0.414557 -0.0355761 0.0350757)
(-0.512018 0.0590981 1.11364e-05)
(-0.387127 0.0446892 -2.15028e-06)
(-0.387136 0.0447069 -1.83299e-06)
(-0.477361 0.0509033 0.0330045)
(-0.517354 0.0597143 -5.63441e-07)
(-0.418985 0.0483817 3.94859e-05)
(-0.345655 0.0399073 1.22926e-05)
(-0.413402 0.0477386 -2.70889e-06)
(-0.443937 0.051285 -3.03513e-05)
(-0.289437 -1.19382e-05 0.00107258)
(-0.289535 0 -1.56865e-17)
(-0.28779 -0.000125154 0.00262812)
(-0.443809 0.0371278 -0.0432763)
(-0.275577 -0.00010254 0.00212498)
(-0.466548 0.0673398 4.05538e-05)
(-0.43437 0.0626952 -1.53039e-05)
(-0.305009 -3.87603e-06 0.00171111)
(-0.30747 -0.000111028 0.00443213)
(-0.298709 -6.75924e-05 0.00386598)
(-0.462108 0.00954353 -0.0289231)
(-0.354438 0.00824269 -0.0235184)
(-0.275225 -5.56103e-05 0.00501656)
(-0.290762 -0.000126673 0.00266596)
(-0.288393 -0.000125475 0.00263367)
(-0.290852 -0.00012655 0.00265734)
(-0.371381 0.00596527 0.031802)
(-0.35774 -2.5265e-05 0.0087555)
(-0.343339 -0.000146675 0.0053797)
(-0.333758 2.51561e-08 0.00848202)
(-0.290711 -0.000135439 0.00329337)
(-0.288782 -0.000134686 0.00329693)
(-0.290426 -0.00013005 0.00419177)
(-0.361649 0.0501539 -4.33878e-06)
(-0.361677 0.0501996 4.47998e-06)
(-0.453507 0.0629335 1.82044e-05)
(-0.467284 0.0648212 -2.38349e-06)
(-0.42225 0.0470453 0.0384697)
(-0.366182 0.0076662 0.0339754)
(-0.330596 0.00873688 0.0332784)
(-0.343225 -0.00014656 0.00537716)
(-0.279588 -0.000119428 0.00438239)
(-0.343486 -0.000149303 0.00313408)
(-0.287955 -0.000125848 0.00266141)
(-0.347072 -0.000151064 0.00317145)
(-0.266107 9.78605e-05 -0.00228142)
(-0.276484 -7.78817e-08 8.95015e-06)
(-0.271661 5.5796e-06 -0.000164506)
(-0.388861 0.0561266 -6.52402e-05)
(-0.431013 0.0622105 1.66695e-05)
(-0.492363 0.0601037 0.035517)
(-0.32557 0.00975574 -0.0242036)
(-0.365733 0.0041105 -0.0164835)
(-0.39482 -0.000168554 0.00618886)
(-0.450666 0.0617827 -0.0199402)
(-0.328838 -0.000221859 0.00546654)
(-0.336766 0.000398904 -0.00365156)
(-0.317063 -9.97262e-05 0.00635063)
(-0.498924 0.0581093 0.0416192)
(-0.321649 0.0063793 0.0293767)
(-0.360481 -0.000151384 0.00577645)
(-0.349544 0.00236747 0.0209678)
(-0.361408 -0.000211296 0.00278902)
(-0.383699 0.0396836 -0.0378723)
(-0.439818 0.061024 -8.04138e-06)
(-0.312827 -0.000133432 0.00490295)
(-0.314354 0.000106524 -0.00196898)
(-0.3191 0.000214526 0.00467536)
(-0.286977 -0.00012497 0.00262571)
(-0.462604 0.0395164 0.0530586)
(-0.417199 0.0325785 0.0506425)
(-0.287837 -0.000133172 0.00314972)
(-0.285785 -0.00013214 0.00316425)
(-0.453114 0.0628675 2.6694e-05)
(-0.284209 0 -1.48905e-17)
(-0.283073 0 3.49197e-17)
(-0.280783 0 0)
(-0.266678 0 1.40108e-17)
(-0.285572 0 1.79275e-17)
(-0.28278 0 -9.39534e-18)
(-0.28518 0 0)
(-0.325443 0.00205675 0.00501228)
(-0.34311 0 -6.34122e-18)
(-0.323435 -0.00203864 -0.00496197)
(-0.341151 -0.000157177 -0.00481589)
(-0.33676 -0.000151504 -0.00417293)
(-0.323668 0.00202592 0.00493571)
(-0.346602 0 -3.91427e-18)
(-0.343196 0 -1.58803e-17)
(-0.379895 0 -1.4702e-17)
(-0.344217 0 0)
(-0.339144 0.00204405 -0.0378116)
(-0.345462 0 -3.03658e-17)
(-0.344331 0 1.59417e-17)
(-0.553322 -0.0356393 0.0634326)
(-0.339516 -0.000636926 -0.00848439)
(-0.35777 0 7.55392e-18)
(-0.422523 0 -9.95508e-18)
(-0.32745 -0.00542515 0.0341971)
(-0.423426 -0.0127781 0.0259381)
(-0.344367 -0.00170388 0.0377551)
(-0.409582 -0.013922 -0.0531611)
(-0.421849 -0.0145296 -0.0585788)
(-0.315569 -0.0106627 -0.0407892)
(-0.334163 -0.029237 0.0153025)
(-0.278234 -0.00845355 -0.0126289)
(-0.376315 -0.0114472 -0.0170974)
(-0.318211 -0.00773353 -0.0123259)
(-0.329121 -0.00823256 -0.0140148)
(-0.388997 -0.0146075 -0.0289786)
(-0.329514 -0.0100104 -0.014954)
(-0.297005 -0.0101896 -0.0165284)
(-0.406798 -0.0369412 0.00960679)
(-0.370528 -0.0503332 0.0166242)
(-0.370513 -0.0502486 0.0166138)
(-0.369266 -0.0500961 0.0162372)
(-0.370747 -0.0474081 0.0154076)
(-0.457019 -0.0627463 0.0165527)
(-0.420207 -0.0563198 0.0211003)
(-0.351318 -0.0470435 0.017871)
(-0.412084 0.047431 -0.000191572)
(-0.514696 -0.0457748 -0.00973255)
(-0.305062 -0.0138569 -0.0357473)
(-0.384303 -0.017951 -0.0445595)
(-0.380787 -0.0150466 -0.0401517)
(-0.350655 -0.0295711 -0.000659512)
(-0.336783 -0.0212089 -0.0485773)
(-0.350889 -0.0213187 -0.0489824)
(-0.344892 -0.020239 -0.0502785)
(-0.34448 -0.0200663 -0.0500977)
(-0.431571 -0.0386827 -0.00967598)
(-0.533293 -0.0732481 0.0191991)
(-0.381726 -0.0184015 -0.033727)
(-0.305343 -0.013972 -0.0256089)
(-0.309262 -0.0124836 -0.0319308)
(-0.37321 -0.0370171 0.0160026)
(-0.373285 -0.0375067 0.0163258)
(-0.372057 -0.0372829 0.0159862)
(-0.366521 -0.0365892 0.0153075)
(-0.293184 -0.008925 -0.0133042)
(-0.314307 -0.00956137 -0.0142676)
(-0.337072 -0.0382717 0.00287774)
(-0.371506 0.00896019 0.0250399)
(-0.371178 -0.000159089 -0.00336422)
(-0.32978 0.00846149 0.0229046)
(-0.408422 0.00353344 0.0149159)
(-0.292864 -0.000125179 -0.00265178)
(-0.300224 -0.000119142 -0.00458515)
(-0.312687 -0.000119753 -0.00430053)
(-0.303847 -0.000124732 -0.00463701)
(-0.287148 -0.000125135 -0.00454272)
(-0.313103 -2.22901e-05 -0.0077439)
(-0.469006 -0.00117171 -0.0145162)
(-0.475342 -0.0170447 0.0485387)
(-0.335613 0 -1.57012e-17)
(-0.328082 9.24758e-06 0.00102777)
(-0.332016 0 0)
(-0.434356 -0.0109392 -0.0616108)
(-0.385792 -0.0091689 -0.0548828)
(-0.346039 -0.0109176 -0.043035)
(-0.404371 -0.013704 -0.050713)
(-0.348147 -0.0119168 -0.0443715)
(-0.28908 -0.0100994 -0.0276155)
(-0.389442 -0.0127852 -0.0364327)
(-0.384386 -0.0129744 -0.0354229)
(-0.392913 -0.00838169 -0.0204396)
(-0.288558 -0.00742421 -0.0171218)
(-0.321796 -0.027685 0.0326495)
(-0.3176 -0.0273229 0.0322431)
(-0.398546 -0.0342762 0.0404483)
(-0.383132 -0.0321272 0.0386433)
(-0.400507 -0.0344363 0.0406544)
(-0.383874 -0.0330182 0.0389549)
(-0.390711 -0.0329538 0.0394706)
(-0.371018 -0.0298397 0.0369809)
(-0.270751 0 1.42624e-17)
(-0.282542 -0.00812102 0.00433158)
(-0.329072 -0.00977263 0.00516315)
(-0.276707 -0.0080044 0.00427095)
(-0.336589 -0.00987317 0.00525293)
(-0.32918 -0.00952972 0.00499949)
(-0.391279 -0.0115718 0.00626872)
(-0.345185 -0.0101474 0.00543806)
(-0.336255 0 -3.95669e-18)
(-0.330672 0.00040569 0.00654822)
(-0.343803 0 1.97742e-17)
(-0.374029 0.0200245 0.0268886)
(-0.390466 0.0136377 0.0291301)
(-0.267785 -0.000116545 -0.00423606)
(-0.428344 -0.000131304 -0.00953466)
(-0.328894 0.00776229 -0.0317777)
(-0.351937 0.00160942 -0.0184657)
(-0.422984 -0.000167902 -0.0077973)
(-0.351587 2.75367e-07 -0.00894803)
(-0.417493 0.0282156 -0.0500649)
(-0.421995 0.0428418 -0.0354877)
(-0.388654 0.00019586 0.0155687)
(-0.393039 -0.00130325 0.00392727)
(-0.393023 -0.00132104 0.00396214)
(-0.392049 -0.0012946 0.00390689)
(-0.392313 -0.00127133 0.00378061)
(-0.392184 -0.00130237 0.00384853)
(-0.390066 0.000168254 0.0127198)
(-0.392463 -0.0013307 0.00396077)
(-0.392826 -0.00133224 0.00396413)
(-0.392396 -0.00126819 0.00377814)
(-0.392373 -0.00126811 0.00377792)
(-0.392305 -0.00129104 0.00380048)
(-0.281129 -0.0109793 0.0287601)
(-0.337943 -0.0177994 0.0424152)
(-0.391137 -0.00132905 0.00395253)
(-0.391688 -0.00358209 0.00486112)
(-0.3917 -0.00132928 0.00395257)
(-0.39192 -0.00131765 0.0039432)
(-0.392323 -0.00129892 0.00384583)
(-0.391861 -0.00132881 0.00395454)
(-0.391447 -0.000564647 0.00469133)
(-0.392066 -0.00132597 0.00396002)
(-0.391723 -0.00132819 0.00395198)
(-0.393043 -0.00198493 0.00459158)
(-0.392636 -0.00129654 0.00390522)
(-0.392092 -0.00132568 0.00396064)
(-0.313182 -0.0251902 0.0312213)
(-0.385565 -0.0263815 0.0393189)
(-0.375794 -0.0280426 0.0372027)
(-0.291681 -0.0134765 0.0226342)
(-0.391863 -0.010051 0.00548483)
(-0.345328 -0.0095538 0.00501803)
(-0.338274 -0.00899126 0.00484873)
(-0.287614 -0.00794788 0.00417434)
(-0.370695 -0.0326802 0.0154891)
(-0.465744 3.54127e-18 0)
(-0.423042 0.0456683 -4.39161e-17)
(-0.423103 0.0456749 -9.72802e-19)
(-0.465602 -2.32759e-17 -8.71253e-18)
(-0.466842 -2.32147e-17 3.40966e-17)
(-0.470122 0 1.64238e-17)
(-0.44699 -0.0462842 -0.00709231)
(-0.332373 0.241528 -0.135856)
(-0.429843 0.000379848 0.0314697)
(-0.466353 0 -3.84649e-17)
(-0.468733 1.96688e-17 0)
(-0.465752 -2.32662e-17 -1.05425e-17)
(-0.416364 -0.0444092 0.0161537)
(-0.445263 0.146604 -0.0533266)
(-0.40793 -0.0370388 0.0175069)
(-0.474616 -0.0429118 0.019928)
(-0.320555 3.00308e-05 1.24535e-05)
(-0.387065 0.0537119 1.69486e-05)
(-0.386597 0.0536469 -2.50784e-18)
(-0.405658 0.0562909 7.07043e-06)
(-0.383487 0.0532163 2.16989e-06)
(-0.384414 0.0533383 -6.64476e-06)
(-0.368008 0.0425073 2.0772e-05)
(-0.381041 0.0523881 -0.00471485)
(-0.357926 0.0516617 -2.70321e-06)
(-0.388253 0.0560387 7.19703e-06)
(-0.372 0.053693 3.04033e-06)
(-0.392844 0.0567017 -5.30101e-06)
(-0.369364 0.0531413 0.002335)
(-0.343555 0.0495226 -6.36616e-06)
(-0.379631 0.0526583 -2.8263e-05)
(-0.379902 0.0527097 2.31786e-06)
(-0.379909 0.0527251 1.95134e-05)
(-0.490513 0.0680763 -3.35798e-05)
(-0.385973 0.0535486 3.16583e-18)
(-0.376686 0.0522666 -2.20207e-06)
(-0.365844 0.0507613 8.30645e-06)
(-0.36589 0.0507825 -8.32681e-07)
(-0.349668 0.0504564 -1.86655e-05)
(-0.349742 0.0504996 -9.74646e-06)
(-0.347054 0.0501211 5.50592e-05)
(-0.347055 0.0500503 9.80399e-05)
(-0.364059 0.0525466 -1.35986e-05)
(-0.369363 0.0533122 -8.31725e-06)
(-0.365872 0.0528083 1.63796e-05)
(-0.534023 0.0770788 2.42613e-05)
(-0.441321 0.0592276 0.0228204)
(-0.426311 0.061532 6.77228e-05)
(-0.441138 0.0636719 -8.54988e-06)
(-0.368802 0.0532308 9.78971e-06)
(-0.368765 0.0532927 1.40806e-06)
(-0.368624 0.0532228 3.63975e-05)
(-0.36871 0.0531485 2.2201e-06)
(-0.438991 0.0633622 -4.85932e-05)
(-0.480475 0.0560824 -0.0399)
(-0.356907 0.0494988 8.18742e-06)
(-0.35697 0.0495419 8.06816e-06)
(-0.340061 0.0558799 0.000230104)
(-0.347025 0.0298805 -0.000199648)
(-0.356757 0.0514921 -0.000111597)
(-0.42162 0.0608533 0.000100844)
(-0.352625 0.0380224 0.0270124)
(-0.439846 0.0634433 0.000852488)
(-0.43783 0.0631402 -0.00104091)
(-0.361624 0.000845187 -0.0155554)
(-0.345546 0.00714625 -0.0318612)
(-0.335516 0.0107698 -0.0357386)
(-0.452483 0.0624897 -0.00389732)
(-0.350027 0.00302797 -0.0244146)
(-0.327283 0.00382039 -0.0250694)
(-0.517664 0.0639036 -0.0367377)
(-0.4295 0.0500939 -0.0357293)
(-0.470314 -0.015293 -0)
(-0.45875 -0.0148412 -4.032e-05)
(-0.452829 0.0147117 -5.28196e-05)
(-0.463287 -0.0150706 1.17317e-05)
(-0.452035 0.0146791 1.45245e-05)
(-0.471441 -0.0152827 7.41865e-06)
(-0.393417 -0.00179818 1.06529e-05)
(-0.392958 -0.00178359 -7.55501e-06)
(-0.393068 -0.00180445 4.84177e-05)
(-0.392955 -0.00127341 0.00378778)
(-0.393088 -0.00177741 0.000181701)
(-0.393271 -0.00154929 0.000490604)
(-0.393582 -0.00154639 0.00154905)
(-0.392956 -0.00126622 0.00378745)
(-0.393375 -0.0015465 0.00102176)
(-0.392723 -0.00178252 -7.55051e-06)
(-0.392615 -0.00180308 0.000124538)
(-0.392831 -0.00180264 8.68407e-05)
(-0.387579 -0.00327453 -0.0100382)
(-0.381897 -0.00322478 -0.00990359)
(-0.378725 -0.00319465 -0.00981873)
(-0.419384 -0.00340224 -0.0222184)
(-0.385813 -0.00325301 -0.00998673)
(-0.371479 -0.00357036 -0.01058)
(-0.375753 -0.00318741 -0.0102526)
(-0.371434 -0.00467692 -0.01715)
(-0.372594 -0.00449585 -0.0159026)
(-0.368957 -0.00464695 -0.0168275)
(-0.427193 -0.00606923 -0.021165)
(-0.393108 -0.00181963 0.00013982)
(-0.392461 -0.00180094 8.67655e-05)
(-0.392499 -0.00182072 0.000143376)
(-0.392847 -0.00154798 0.00254127)
(-0.392898 -0.00181866 0.000139745)
(-0.392763 -0.0018234 0.000143472)
(-0.393595 -0.00182262 0.000140694)
(-0.393075 -0.00154118 0.00201601)
(-0.392852 -0.00181843 0.000139728)
(-0.392377 -0.00179807 5.28025e-05)
(-0.392492 -0.00181678 0.0001396)