/*--------------------------------*- C++ -*----------------------------------*\
  =========                 |
  \\      /  F ield         | OpenFOAM: The Open Source CFD Toolbox
   \\    /   O peration     | Website:  https://openfoam.org
    \\  /    A nd           | Version:  10
     \\/     M anipulation  |
\*---------------------------------------------------------------------------*/
FoamFile
{
    format      ascii;
    class       volScalarField;
    location    "0.1";
    object      k;
}
// * * * * * * * * * * * * * * * * * * * * * * * * * * * * * * * * * * * * * //

dimensions      [0 2 -2 0 0 0 0];

internalField   nonuniform List<scalar> 
116800
(
0.0823066
0.0886165
0.0901105
0.0859737
0.0871216
0.0823068
0.0886175
0.0901055
0.0859735
0.0871168
0.0856071
0.082307
0.0886185
0.0900993
0.0859735
0.0871033
0.0856069
0.0862117
0.0855198
0.0823071
0.0886193
0.0901041
0.0859749
0.0871125
0.0856079
0.086223
0.085521
0.0858482
0.0855092
0.0856807
0.085521
0.0856168
0.0855335
0.0855944
0.0823073
0.0886201
0.0901023
0.085976
0.0871037
0.0856086
0.0862075
0.0855206
0.0858349
0.0855101
0.0856727
0.0855232
0.0856109
0.0855362
0.0855917
0.0855392
0.0823073
0.0886209
0.0901157
0.0859789
0.0871243
0.0856105
0.0862286
0.0855232
0.0858491
0.0855105
0.0856784
0.0855229
0.0856125
0.0855377
0.0855913
0.085542
0.0855969
0.0823076
0.0886219
0.0901162
0.0859809
0.0871194
0.0856119
0.0862187
0.0855238
0.0858411
0.0855117
0.0856735
0.085525
0.085608
0.08554
0.0855905
0.0855438
0.0855991
0.0855322
0.0823077
0.088623
0.0901306
0.0859844
0.0871393
0.0856143
0.0862373
0.0855267
0.0858561
0.0855125
0.08568
0.0855246
0.0856105
0.0855422
0.0855902
0.085549
0.0855952
0.0855382
0.0856314
0.0855153
0.0857365
0.0823081
0.0886245
0.090132
0.0859869
0.0871367
0.0856162
0.0862317
0.0855279
0.0858522
0.0855138
0.0856783
0.085526
0.0856106
0.0855439
0.0855913
0.0855503
0.085598
0.0855383
0.0856349
0.0855166
0.0857389
0.0854992
0.0859883
0.0855063
0.0865146
0.0855336
0.0879133
0.0857039
0.0925467
0.0877327
0.0823084
0.0886264
0.0901417
0.0859903
0.0871478
0.0856186
0.0862405
0.0855304
0.0858584
0.085516
0.0856798
0.0855286
0.085611
0.0855476
0.0855917
0.0855561
0.0855961
0.0855449
0.0856313
0.0855202
0.0857333
0.0855007
0.0859815
0.0855069
0.0865081
0.0855349
0.0879067
0.0857037
0.0925403
0.0877333
0.082309
0.0886288
0.090142
0.0859932
0.0871439
0.0856208
0.0862351
0.0855319
0.0858549
0.0855176
0.0856795
0.0855301
0.0856136
0.0855487
0.0855942
0.0855575
0.0856016
0.0855432
0.0856389
0.0855207
0.0857383
0.0855026
0.0859851
0.0855088
0.086508
0.0855362
0.0879037
0.0857036
0.092534
0.0877342
0.0823096
0.0886319
0.0901458
0.0859967
0.0871453
0.0856234
0.0862356
0.0855339
0.0858555
0.0855197
0.0856805
0.0855324
0.0856149
0.0855534
0.0855955
0.0855624
0.0855997
0.0855503
0.0856337
0.085525
0.0857284
0.0855044
0.0859741
0.0855094
0.0864975
0.0855379
0.087893
0.0857034
0.0925243
0.0877351
0.0823105
0.0886358
0.0901429
0.086
0.0871357
0.0856259
0.0862258
0.0855353
0.0858481
0.0855218
0.0856769
0.0855355
0.0856151
0.0855556
0.0855986
0.0855622
0.0856073
0.0855483
0.0856417
0.0855257
0.0857335
0.0855068
0.0859762
0.0855115
0.0864937
0.0855398
0.0878848
0.0857032
0.0925138
0.0877362
0.0823116
0.0886408
0.0901416
0.0860039
0.0871289
0.085629
0.086221
0.0855372
0.085847
0.0855235
0.0856791
0.0855366
0.0856186
0.0855599
0.0855995
0.0855692
0.0856029
0.0855591
0.0856336
0.0855318
0.0857225
0.0855093
0.0859615
0.0855123
0.0864784
0.0855422
0.087868
0.085703
0.0924989
0.0877375
0.0823131
0.0886471
0.0901336
0.086008
0.08711
0.0856321
0.0862042
0.0855385
0.0858339
0.0855265
0.0856746
0.0855417
0.0856194
0.0855631
0.0856032
0.0855691
0.0856094
0.0855568
0.0856408
0.0855327
0.0857282
0.0855124
0.0859621
0.085515
0.0864705
0.085545
0.0878527
0.0857029
0.0924816
0.0877392
0.082315
0.0886551
0.0901287
0.0860132
0.0870965
0.085636
0.086197
0.0855409
0.0858312
0.0855286
0.0856762
0.0855442
0.0856222
0.0855676
0.0856044
0.0855759
0.085607
0.085567
0.085635
0.0855389
0.0857175
0.0855157
0.0859446
0.0855164
0.0864502
0.0855485
0.0878274
0.0857027
0.0924583
0.0877414
0.0823176
0.0886655
0.0901129
0.0860187
0.0870644
0.0856399
0.0861716
0.0855426
0.0858117
0.0855331
0.0856695
0.0855518
0.0856231
0.0855714
0.0856089
0.0855759
0.0856158
0.0855639
0.0856434
0.0855401
0.0857226
0.0855193
0.0859376
0.0855198
0.0864364
0.0855529
0.0878005
0.0857025
0.0924296
0.0877444
0.0823209
0.088679
0.0901051
0.0860264
0.0870449
0.0856451
0.0861639
0.0855456
0.0858055
0.0855368
0.0856699
0.0855565
0.085625
0.0855772
0.08561
0.0855828
0.0856127
0.0855732
0.0856387
0.0855467
0.0857126
0.0855236
0.0859137
0.0855225
0.0864116
0.0855581
0.0877623
0.0857022
0.0923916
0.0877484
0.0823257
0.088697
0.0900746
0.0860341
0.0869966
0.0856497
0.0861328
0.0855476
0.0857845
0.085543
0.0856641
0.0855665
0.0856246
0.085584
0.0856134
0.0855852
0.085619
0.0855745
0.085644
0.0855502
0.0857135
0.0855282
0.0859026
0.0855269
0.0863894
0.0855648
0.0877132
0.0857019
0.0923395
0.0877541
0.0823321
0.0887208
0.0900586
0.0860457
0.0869671
0.0856557
0.0861224
0.0855517
0.085778
0.0855485
0.085665
0.0855706
0.0856282
0.085587
0.0856155
0.0855903
0.0856176
0.0855812
0.0856411
0.0855565
0.0857062
0.0855332
0.0858833
0.0855318
0.0863605
0.0855729
0.087651
0.0857017
0.0922706
0.0877622
0.082342
0.088753
0.0899836
0.0860547
0.0868934
0.0856591
0.0860877
0.0855555
0.0857607
0.0855577
0.0856615
0.0855853
0.0856281
0.0855981
0.0856189
0.0855976
0.0856238
0.0855876
0.085645
0.0855642
0.0857036
0.08554
0.0858632
0.0855367
0.0863133
0.085584
0.0875591
0.0857009
0.0921592
0.0877729
0.0823564
0.0887951
0.0899438
0.0860709
0.0868432
0.0856648
0.0860592
0.0855616
0.0857514
0.0855649
0.0856618
0.0855883
0.0856315
0.0855992
0.0856218
0.0856003
0.0856243
0.0855926
0.0856436
0.0855706
0.0856976
0.0855462
0.0858429
0.0855427
0.0862537
0.0855967
0.0874597
0.0857015
0.0920125
0.0877894
0.0823853
0.08885
0.0897173
0.0860709
0.0867147
0.0856596
0.0859929
0.0855704
0.0857394
0.0855838
0.0856651
0.0856089
0.0856386
0.0856169
0.0856309
0.0856162
0.0856341
0.0856086
0.0856505
0.0855893
0.0856961
0.0855587
0.0858183
0.0855477
0.086172
0.0855998
0.0872728
0.085697
0.0917234
0.0878055
0.0824355
0.088907
0.0896332
0.0860902
0.0866477
0.0856647
0.0859493
0.0855814
0.0857307
0.0855933
0.0856651
0.0856135
0.0856421
0.08562
0.0856351
0.0856198
0.0856372
0.0856144
0.0856516
0.0855983
0.085692
0.0855696
0.0857992
0.0855562
0.0861093
0.085606
0.0870898
0.0857008
0.0913558
0.0878284
0.0825866
0.0889984
0.0889401
0.0860544
0.0863889
0.0856708
0.085881
0.085638
0.0857429
0.0856568
0.0856982
0.0856662
0.0856808
0.0856682
0.085675
0.0856669
0.0856761
0.0856628
0.0856856
0.0856532
0.0857125
0.0856285
0.0857835
0.0855894
0.0859889
0.0856
0.0866677
0.0856955
0.0904488
0.0877919
0.0830658
0.0891525
0.0891553
0.0861518
0.0863646
0.0857462
0.0859221
0.0857204
0.0858096
0.0857381
0.0857725
0.0857457
0.0857582
0.085747
0.0857535
0.0857462
0.0857547
0.0857439
0.0857632
0.0857372
0.0857861
0.0857179
0.0858444
0.0856757
0.0860024
0.085666
0.0864873
0.085767
0.0894859
0.0878843
0.0857132
0.0932937
0.0922138
0.0866771
0.0862385
0.0858576
0.0857646
0.0857324
0.0857067
0.0856976
0.0856882
0.0856838
0.0856793
0.0856769
0.0856747
0.0856736
0.0856728
0.085673
0.0856732
0.0856749
0.0856765
0.08568
0.0856862
0.0856897
0.0857547
0.0857216
0.0860374
0.0860097
0.0894742
0.0942707
0.0863504
0.100003
0.0992856
0.0988229
0.0962367
0.0863511
0.100024
0.0993115
0.0988451
0.0962539
0.0958657
0.0863518
0.100027
0.0993177
0.098859
0.0962638
0.0958835
0.0952172
0.0950785
0.0863521
0.100033
0.0993188
0.0988572
0.0962605
0.0958717
0.0952097
0.0950738
0.0949145
0.0948668
0.0948258
0.0948113
0.0948015
0.0947969
0.0947943
0.0863526
0.100026
0.0993068
0.0988581
0.0962576
0.095893
0.0952269
0.0950861
0.0949211
0.0948694
0.0948267
0.0948108
0.0947996
0.094796
0.094794
0.0947968
0.0863526
0.100018
0.0992883
0.0988352
0.0962406
0.0958741
0.0952148
0.0950825
0.0949195
0.0948699
0.094827
0.0948129
0.0948028
0.0947973
0.0947953
0.0947957
0.0947949
0.0863531
0.100011
0.0992731
0.0988328
0.0962334
0.0958863
0.0952226
0.0950947
0.0949265
0.094875
0.0948307
0.094815
0.0948013
0.0947965
0.0947946
0.0947978
0.0947956
0.0948053
0.0863533
0.0999984
0.09925
0.0988101
0.096216
0.0958743
0.0952153
0.0950909
0.0949223
0.0948743
0.0948294
0.0948174
0.0948059
0.0947978
0.0947964
0.0947961
0.0947962
0.0948053
0.0948118
0.0948542
0.0948671
0.086354
0.0999968
0.0992401
0.0988105
0.0962099
0.0958799
0.0952156
0.095095
0.0949231
0.0948761
0.0948313
0.0948172
0.0948058
0.0947978
0.0947964
0.0947967
0.0947959
0.0948061
0.0948107
0.0948543
0.0948668
0.095004
0.0950322
0.0954769
0.0955816
0.0970861
0.0981687
0.100321
0.101955
0.0986684
0.0863547
0.0999904
0.099225
0.0988005
0.0962005
0.0958776
0.0952158
0.0950967
0.0949256
0.09488
0.094835
0.0948184
0.0948055
0.0947981
0.0947972
0.0947963
0.0947963
0.0948051
0.0948117
0.0948554
0.0948709
0.0950062
0.0950399
0.0954846
0.0955938
0.097095
0.0981843
0.100326
0.101964
0.0986544
0.086356
0.0999957
0.0992236
0.0988082
0.0961992
0.095882
0.0952153
0.0950966
0.0949234
0.0948784
0.0948333
0.0948165
0.0948052
0.094799
0.0947988
0.0947974
0.0947965
0.0948075
0.09481
0.0948514
0.0948656
0.0949989
0.095033
0.0954761
0.0955877
0.0970838
0.0981805
0.100317
0.101969
0.0986432
0.0863575
0.1
0.0992217
0.0988144
0.0961975
0.0958844
0.0952149
0.0950959
0.094922
0.0948785
0.0948342
0.0948177
0.0948077
0.0947993
0.0947982
0.0947973
0.0947966
0.094806
0.0948101
0.094852
0.0948689
0.0950009
0.0950401
0.095483
0.095601
0.0970944
0.0982016
0.100325
0.101983
0.0986224
0.0863597
0.100015
0.0992314
0.0988349
0.0962041
0.0958904
0.0952166
0.0950957
0.0949219
0.0948777
0.0948336
0.0948176
0.0948053
0.0947991
0.0947978
0.0947989
0.0947968
0.0948065
0.0948082
0.094847
0.0948614
0.0949915
0.0950317
0.0954736
0.0955973
0.0970877
0.0982076
0.100322
0.101995
0.0986021
0.0863623
0.100034
0.099244
0.098859
0.0962103
0.0958938
0.0952124
0.0950895
0.0949132
0.094871
0.0948285
0.0948183
0.0948103
0.0948001
0.0947997
0.094798
0.0947976
0.0948055
0.0948105
0.0948509
0.094867
0.094995
0.0950392
0.0954794
0.0956117
0.0971006
0.0982356
0.100335
0.102015
0.0985707
0.0863658
0.100062
0.0992673
0.098896
0.0962247
0.0959017
0.0952158
0.0950891
0.0949148
0.0948694
0.094828
0.0948157
0.0948066
0.0947999
0.0947989
0.0947989
0.0947978
0.0948058
0.0948082
0.0948453
0.0948567
0.0949835
0.0950278
0.0954679
0.0956095
0.097099
0.0982532
0.10034
0.102039
0.0985363
0.0863702
0.100095
0.0992947
0.0989383
0.0962379
0.0959076
0.0952126
0.0950813
0.094907
0.0948627
0.0948247
0.0948155
0.0948087
0.0948005
0.0948004
0.0947985
0.0947986
0.0948057
0.0948095
0.0948465
0.0948594
0.094984
0.0950312
0.0954695
0.095622
0.0971137
0.098289
0.100359
0.10207
0.0984879
0.0863761
0.100145
0.0993351
0.0989954
0.0962591
0.0959161
0.0952161
0.0950792
0.0949089
0.0948607
0.0948246
0.0948122
0.094804
0.0948006
0.0947997
0.0948
0.0947985
0.0948054
0.094806
0.0948385
0.0948473
0.0949684
0.0950148
0.0954524
0.0956185
0.0971176
0.0983226
0.100376
0.102113
0.0984279
0.0863834
0.100197
0.0993732
0.0990547
0.0962745
0.0959186
0.0952109
0.0950642
0.0949023
0.0948561
0.0948233
0.0948115
0.0948055
0.0948005
0.0947998
0.0947996
0.0947989
0.094806
0.0948066
0.0948392
0.0948481
0.0949678
0.0950124
0.0954474
0.0956241
0.0971313
0.0983629
0.100402
0.102165
0.0983502
0.0863938
0.10029
0.0994387
0.0991402
0.0962985
0.0959168
0.0952071
0.0950497
0.0948992
0.0948505
0.0948221
0.0948087
0.0948038
0.0948003
0.0947993
0.0948
0.0947988
0.0948053
0.0948046
0.0948334
0.0948396
0.0949532
0.094992
0.0954267
0.0956159
0.0971324
0.0984037
0.100445
0.10225
0.0982387
0.0864077
0.10038
0.0994824
0.0992175
0.0963095
0.0959045
0.0951975
0.0950325
0.0948946
0.0948462
0.0948208
0.0948077
0.0948036
0.0947999
0.094799
0.0947997
0.0947993
0.0948057
0.094804
0.094833
0.0948364
0.0949484
0.094981
0.0954128
0.0956047
0.0971321
0.0984294
0.100498
0.102356
0.0981049
0.0864295
0.100592
0.0995896
0.0993224
0.0963203
0.0958546
0.095177
0.0950031
0.0948887
0.0948377
0.0948197
0.0948058
0.0948033
0.0947993
0.0947991
0.0947992
0.0947984
0.0948051
0.0948029
0.094829
0.0948291
0.0949347
0.0949599
0.0953799
0.0955666
0.0971105
0.0984512
0.100595
0.102551
0.0978785
0.0864596
0.100825
0.0996385
0.0994239
0.0963552
0.0958044
0.0951758
0.0949841
0.0948879
0.0948331
0.0948196
0.0948042
0.0948022
0.0947991
0.0947982
0.0947995
0.094798
0.0948044
0.0948014
0.0948271
0.0948243
0.0949264
0.0949428
0.0953557
0.095522
0.0971121
0.0984398
0.100728
0.102791
0.0976372
0.0865128
0.101525
0.0998552
0.0994511
0.0963241
0.0956379
0.0951377
0.0949378
0.0948766
0.0948219
0.0948163
0.0948017
0.094802
0.0947983
0.0947985
0.0947987
0.0947981
0.0948037
0.0948011
0.0948231
0.0948174
0.0949069
0.0949104
0.0952848
0.0954093
0.0969913
0.098318
0.10095
0.103293
0.0971713
0.086572
0.102759
0.100142
0.0993876
0.0965506
0.0955633
0.0951875
0.0949264
0.0948848
0.0948219
0.0948184
0.0948028
0.0948024
0.0947993
0.0947986
0.0947995
0.0947981
0.0948037
0.0947999
0.0948225
0.0948142
0.0949056
0.0948993
0.0952822
0.0953668
0.0970244
0.0981588
0.101435
0.103794
0.0968366
0.0866421
0.107409
0.101214
0.0985829
0.0963257
0.0952399
0.0950971
0.0948664
0.0948665
0.0948127
0.0948169
0.0948034
0.0948051
0.0948018
0.0948024
0.0948025
0.0948027
0.0948064
0.0948052
0.0948203
0.0948146
0.0948759
0.0948641
0.0951403
0.0951654
0.0965893
0.0974556
0.101704
0.105128
0.0964976
0.0872874
0.135013
0.107231
0.102569
0.0980514
0.0962095
0.095438
0.0952801
0.0950838
0.0950958
0.0950324
0.0950458
0.0950212
0.0950277
0.0950146
0.095021
0.0950066
0.0950228
0.0949941
0.0950441
0.0949776
0.0951384
0.0950079
0.0955579
0.0954275
0.0977105
0.0980117
0.105638
0.104091
0.104072
0.0918815
0.233106
0.260291
0.17335
0.117002
0.116798
0.108463
0.107193
0.107085
0.106595
0.106771
0.106645
0.10669
0.106657
0.106669
0.106659
0.106667
0.106659
0.10668
0.106646
0.106748
0.106573
0.10706
0.106363
0.108383
0.111316
0.113035
0.154853
0.226089
0.346746
0.0859378
0.100916
0.0990184
0.0963371
0.0859387
0.100925
0.0990508
0.0963523
0.0955223
0.0952702
0.0859387
0.100927
0.0990351
0.0963665
0.0955164
0.095284
0.0949961
0.0949347
0.0859391
0.100933
0.0990474
0.0963563
0.0955207
0.0952753
0.094994
0.0949514
0.0948601
0.0948264
0.0948063
0.0947953
0.0947922
0.0947913
0.09479
0.0859388
0.100931
0.0990164
0.0963624
0.0954983
0.0952772
0.0949909
0.0949268
0.0948474
0.0948215
0.0948055
0.0947963
0.0947935
0.0947912
0.0947895
0.0947894
0.085939
0.100934
0.0990096
0.0963367
0.0954814
0.0952582
0.0949859
0.0949523
0.0948625
0.09483
0.0948079
0.0947963
0.0947931
0.0947906
0.0947897
0.0947899
0.0947913
0.0859387
0.100935
0.0989868
0.0963414
0.0954677
0.0952567
0.094978
0.0949301
0.0948474
0.0948242
0.0948073
0.094799
0.0948022
0.0947915
0.09479
0.0947903
0.0947902
0.0947957
0.0859388
0.100938
0.098973
0.0963206
0.0954485
0.0952414
0.0949723
0.0949408
0.0948572
0.0948354
0.0948111
0.0947957
0.094797
0.0947928
0.0947898
0.0947921
0.0947915
0.09481
0.0948075
0.0948229
0.0948362
0.085939
0.100943
0.0989596
0.0963255
0.0954413
0.0952415
0.0949666
0.0949314
0.094846
0.0948309
0.0948083
0.0947963
0.0947981
0.0947912
0.0947905
0.0947921
0.0947911
0.0948046
0.0948035
0.0948197
0.0948324
0.0948771
0.0949202
0.0950193
0.0951917
0.0955453
0.0963969
0.0993319
0.0995493
0.094578
0.0859393
0.10095
0.0989477
0.0963171
0.0954295
0.0952362
0.0949645
0.0949361
0.0948527
0.0948352
0.0948111
0.0947975
0.0948024
0.0947918
0.0947901
0.0947915
0.0947932
0.0948112
0.0948072
0.0948231
0.0948383
0.0948794
0.0949242
0.0950215
0.0951963
0.0955443
0.0964029
0.0993279
0.0995563
0.0945743
0.0859399
0.100959
0.09894
0.0963241
0.095427
0.095239
0.0949631
0.0949334
0.0948491
0.0948328
0.0948099
0.0947968
0.0947958
0.0947917
0.0947922
0.0947979
0.0947932
0.0948008
0.0948024
0.0948187
0.0948324
0.0948728
0.0949183
0.0950167
0.0951919
0.0955348
0.0964019
0.0993174
0.099566
0.0945755
0.0859406
0.100971
0.0989336
0.0963266
0.0954236
0.0952388
0.0949624
0.0949356
0.0948509
0.0948344
0.0948101
0.0947969
0.0947977
0.094791
0.0947935
0.0947911
0.0947925
0.0948047
0.0948037
0.0948204
0.0948361
0.0948759
0.0949245
0.0950227
0.0951998
0.0955362
0.0964112
0.0993119
0.099576
0.0945711
0.0859418
0.100986
0.0989284
0.0963388
0.095425
0.0952431
0.0949623
0.0949338
0.0948498
0.0948313
0.0948105
0.0947983
0.0948006
0.0947919
0.094792
0.0947938
0.0947918
0.0947998
0.0948036
0.0948183
0.0948345
0.0948718
0.0949202
0.0950181
0.095198
0.0955294
0.0964158
0.0993034
0.0995904
0.0945702
0.0859432
0.101006
0.0989285
0.0963504
0.0954294
0.0952451
0.0949628
0.0949361
0.0948507
0.0948327
0.0948117
0.0947961
0.0947984
0.0947937
0.0947921
0.094794
0.0947925
0.0948111
0.0948066
0.0948197
0.0948361
0.0948756
0.0949267
0.0950268
0.0952087
0.0955346
0.0964299
0.0992961
0.0996057
0.0945648
0.0859451
0.101029
0.0989271
0.096372
0.0954349
0.0952544
0.094964
0.0949335
0.0948481
0.0948283
0.0948082
0.0947957
0.0947983
0.0947925
0.0947929
0.0947935
0.0947926
0.0948041
0.0948037
0.0948205
0.0948347
0.0948732
0.0949223
0.0950205
0.0952079
0.0955313
0.0964406
0.0992874
0.0996281
0.0945611
0.0859476
0.10106
0.098936
0.0963898
0.0954447
0.0952548
0.0949669
0.0949379
0.0948514
0.0948323
0.0948123
0.0947951
0.0948011
0.0947932
0.0947928
0.0947924
0.094794
0.0948098
0.0948038
0.0948187
0.0948298
0.0948743
0.0949261
0.0950293
0.0952201
0.0955417
0.0964615
0.0992757
0.0996541
0.0945543
0.085951
0.101097
0.0989435
0.0964265
0.0954571
0.0952729
0.0949705
0.0949308
0.0948473
0.094824
0.0948068
0.0947952
0.0947992
0.0947935
0.0947959
0.0947936
0.0947961
0.0947979
0.0947994
0.0948206
0.0948307
0.0948733
0.0949229
0.0950219
0.0952185
0.0955421
0.0964803
0.0992638
0.0996923
0.0945466
0.0859551
0.101146
0.0989582
0.096448
0.0954674
0.0952626
0.0949732
0.0949407
0.0948559
0.0948254
0.0948088
0.0947952
0.0947968
0.0947927
0.0947949
0.094794
0.094794
0.0947988
0.0947991
0.0948151
0.0948252
0.0948748
0.0949252
0.0950311
0.0952298
0.0955554
0.0965074
0.0992415
0.09974
0.0945393
0.0859621
0.101217
0.098985
0.0965039
0.0954921
0.0952848
0.0949797
0.0949213
0.0948489
0.0948201
0.0948077
0.0947954
0.0947976
0.094792
0.0947949
0.0947933
0.0947938
0.0947976
0.0947963
0.0948156
0.0948219
0.0948741
0.0949216
0.0950253
0.0952247
0.0955611
0.0965399
0.099233
0.0998128
0.0945258
0.0859695
0.10131
0.0990013
0.096526
0.0954965
0.0952533
0.0949797
0.0949264
0.0948538
0.0948192
0.0948076
0.0947957
0.094796
0.0947931
0.094794
0.094793
0.0947932
0.0947972
0.0947963
0.0948138
0.0948191
0.0948747
0.0949187
0.0950318
0.0952251
0.0955736
0.0965688
0.0992079
0.0999132
0.0945177
0.0859878
0.10147
0.0990776
0.0965823
0.0955354
0.0952527
0.0949862
0.0949099
0.0948521
0.0948152
0.0948091
0.0947954
0.094796
0.094792
0.0947931
0.0947931
0.0947932
0.0947963
0.0947942
0.0948109
0.0948113
0.0948662
0.0949035
0.095031
0.0952088
0.0955855
0.0966115
0.0992174
0.100089
0.0944935
0.086006
0.101685
0.0991217
0.0965923
0.0955666
0.0952194
0.0950001
0.0948952
0.0948511
0.0948109
0.0948073
0.0947949
0.0947953
0.0947918
0.0947924
0.0947918
0.0947918
0.094796
0.0947939
0.0948119
0.094809
0.0948675
0.0948863
0.0950419
0.0951879
0.0956257
0.0966205
0.0992246
0.100342
0.0944905
0.0860712
0.102171
0.0993438
0.0965948
0.0956242
0.0951603
0.095002
0.0948679
0.0948495
0.0948055
0.0948067
0.0947934
0.0947943
0.0947912
0.0947911
0.0947917
0.094791
0.0947948
0.0947923
0.0948077
0.0948023
0.0948579
0.0948615
0.0950324
0.0951307
0.0956569
0.0966196
0.0993694
0.100913
0.0944711
0.0861433
0.1031
0.099664
0.09644
0.0958302
0.0951055
0.0950566
0.0948528
0.0948563
0.0948011
0.0948065
0.0947922
0.0947939
0.0947904
0.0947906
0.0947906
0.09479
0.0947942
0.0947914
0.0948086
0.0948006
0.0948635
0.0948475
0.0950713
0.0950865
0.0958286
0.0964941
0.09973
0.101449
0.0945695
0.0864656
0.107348
0.100626
0.096386
0.0958714
0.0949911
0.0950289
0.094827
0.0948485
0.094799
0.0948059
0.0947932
0.0947944
0.0947916
0.0947914
0.0947918
0.0947911
0.0947947
0.0947921
0.0948061
0.094796
0.094852
0.0948197
0.0950425
0.0949641
0.0959472
0.0961504
0.100527
0.103183
0.0952485
0.0875987
0.136458
0.105932
0.100368
0.0971061
0.0958012
0.0952747
0.0951651
0.0950127
0.0950293
0.0949726
0.0949871
0.0949634
0.0949707
0.0949569
0.0949641
0.0949487
0.0949652
0.094936
0.0949832
0.0949159
0.0950633
0.0949167
0.0954086
0.0950858
0.0972032
0.096014
0.105299
0.100935
0.103344
0.0920008
0.258866
0.284514
0.176878
0.117672
0.117066
0.108345
0.10691
0.106967
0.106421
0.106643
0.106495
0.106557
0.106519
0.106539
0.106528
0.106546
0.106534
0.106575
0.106529
0.106671
0.106457
0.107042
0.106209
0.108478
0.110984
0.11358
0.156722
0.247181
0.428334
0.0855943
0.0966639
0.0961127
0.0955206
0.0954808
0.0951908
0.0855953
0.0966743
0.0961112
0.0955224
0.0954935
0.0952277
0.095082
0.0949653
0.0855954
0.0966636
0.0961076
0.0955252
0.0954756
0.0951937
0.0950272
0.0949191
0.0949005
0.0948545
0.0948218
0.09481
0.094798
0.0947964
0.0947926
0.0855958
0.0966882
0.0960963
0.0955157
0.0954699
0.0952555
0.0951397
0.0949784
0.0949159
0.0948581
0.0948213
0.09481
0.0947925
0.0947936
0.094793
0.0947963
0.0855953
0.0966933
0.0960778
0.095497
0.0954197
0.0951794
0.0950292
0.094931
0.094904
0.0948561
0.0948234
0.0948148
0.0948069
0.0947982
0.0947959
0.0947942
0.0947981
0.0855955
0.0967129
0.0960696
0.0954914
0.095415
0.0952023
0.0950746
0.0949897
0.0949224
0.0948638
0.0948326
0.0948334
0.0947963
0.0948002
0.0947941
0.0948042
0.0947993
0.0948103
0.0855952
0.096726
0.0960523
0.0954753
0.0953781
0.0951601
0.0950201
0.0949442
0.094879
0.0948484
0.0948302
0.0948442
0.0948171
0.0947988
0.0947949
0.0947957
0.0948173
0.0948113
0.0948321
0.0948484
0.0948667
0.0855957
0.0967385
0.0960459
0.0954751
0.0953731
0.0951662
0.0950273
0.0949626
0.0948817
0.0948496
0.0948333
0.0948372
0.0948135
0.0947986
0.0947949
0.0947942
0.0948017
0.0948015
0.0948226
0.094855
0.0948798
0.0949107
0.0949781
0.0950106
0.0952149
0.0952337
0.0956518
0.0961933
0.0964982
0.0932792
0.0855961
0.0967506
0.0960334
0.0954676
0.0953534
0.095148
0.0950098
0.0949505
0.0948803
0.0948627
0.0948459
0.0948358
0.0948011
0.0948022
0.0947949
0.094797
0.0948096
0.0948028
0.0948278
0.0948608
0.0948843
0.0949124
0.0949893
0.0950218
0.09523
0.0952401
0.0956632
0.0961887
0.0964972
0.0932741
0.0855973
0.096759
0.0960284
0.0954726
0.0953513
0.0951511
0.0950103
0.0949551
0.0948791
0.094861
0.09484
0.0948188
0.0948049
0.094804
0.0948175
0.0947989
0.0947988
0.0948084
0.0948136
0.0948358
0.0948711
0.0948981
0.0949776
0.0950087
0.0952174
0.0952289
0.095659
0.0961825
0.0965111
0.0932737
0.0855988
0.0967672
0.0960216
0.0954763
0.0953455
0.0951467
0.0950036
0.0949495
0.0948756
0.0948615
0.094844
0.0948243
0.0948136
0.094803
0.0947953
0.0948022
0.0948064
0.0948034
0.0948132
0.0948439
0.094881
0.0949074
0.0949906
0.0950201
0.0952318
0.095235
0.0956716
0.0961757
0.0965113
0.0932661
0.085601
0.0967734
0.0960179
0.0954868
0.0953486
0.0951536
0.0950103
0.0949571
0.0948833
0.0948692
0.0948496
0.0948403
0.0948011
0.0948006
0.0947968
0.0948027
0.0947974
0.0948075
0.094807
0.0948281
0.0948631
0.0948912
0.0949765
0.0950095
0.0952266
0.0952303
0.0956775
0.0961705
0.0965229
0.0932617
0.0856039
0.0967782
0.0960169
0.095502
0.0953526
0.0951592
0.0950057
0.0949449
0.0948677
0.0948446
0.0948312
0.094845
0.0948281
0.0947998
0.0947983
0.0947966
0.0948108
0.0948072
0.0948238
0.0948599
0.0948905
0.0949117
0.0949938
0.0950233
0.0952422
0.0952392
0.0956944
0.0961624
0.0965253
0.0932505
0.0856077
0.0967838
0.0960154
0.0955185
0.0953618
0.0951716
0.0950251
0.0949614
0.0948881
0.0948553
0.0948305
0.0948285
0.0948112
0.0947999
0.0947967
0.0947959
0.094802
0.094803
0.0948139
0.0948426
0.094859
0.094892
0.0949725
0.0950119
0.0952408
0.0952405
0.0957121
0.0961566
0.0965364
0.0932413
0.0856124
0.0967895
0.096023
0.0955472
0.095375
0.0951893
0.0950206
0.0949463
0.0948719
0.0948346
0.0948289
0.094831
0.0948171
0.0948061
0.0948
0.0947957
0.0948132
0.0948097
0.0948226
0.0948531
0.0948792
0.0949156
0.0949908
0.0950291
0.0952564
0.0952544
0.0957363
0.0961485
0.0965449
0.0932252
0.0856189
0.096799
0.0960265
0.0955724
0.0953922
0.0952059
0.0950626
0.0949803
0.0949112
0.0948504
0.0948301
0.094819
0.0948012
0.0948049
0.0948018
0.0948015
0.0947987
0.0948113
0.0948108
0.0948285
0.0948399
0.0948862
0.0949618
0.0950181
0.095264
0.0952629
0.0957701
0.0961463
0.0965596
0.0932094
0.0856267
0.0968194
0.0960432
0.0956146
0.0954113
0.0952246
0.0950394
0.0949335
0.0948954
0.0948449
0.0948231
0.0948133
0.0948028
0.0948017
0.0947973
0.0947971
0.0948014
0.0948007
0.0948071
0.0948336
0.0948576
0.0949221
0.0949813
0.0950396
0.0952748
0.0952768
0.0958006
0.0961405
0.0965872
0.0931901
0.0856382
0.0968463
0.0960584
0.0956609
0.0954393
0.095241
0.0951032
0.094947
0.0948998
0.0948399
0.0948221
0.0948065
0.0948016
0.094802
0.0947957
0.0947981
0.0947977
0.0947995
0.0948053
0.0948227
0.0948436
0.0948991
0.0949403
0.0950355
0.0952892
0.0953019
0.0958537
0.0961562
0.0966208
0.0931664
0.0856529
0.0969159
0.0960855
0.0957056
0.0954635
0.0952408
0.0950562
0.094919
0.0948887
0.0948371
0.0948181
0.0948039
0.0948
0.0947956
0.0947944
0.0947953
0.0948047
0.0948007
0.0948018
0.0948258
0.0948397
0.0949096
0.094934
0.0950408
0.0952787
0.0953111
0.0958859
0.096162
0.0967076
0.0931448
0.0856761
0.0970468
0.0961489
0.0958042
0.0955121
0.0952206
0.0950585
0.0949011
0.0948893
0.0948249
0.0948186
0.0948077
0.0948021
0.0947968
0.0947959
0.0947932
0.0947943
0.0948018
0.094802
0.0948214
0.0948308
0.0949137
0.0949329
0.0950658
0.0952803
0.0953643
0.0959494
0.096239
0.0968494
0.0931105
0.0857079
0.0973433
0.0962141
0.0958337
0.0955812
0.095192
0.0950784
0.0948912
0.094889
0.0948191
0.0948207
0.0947981
0.0947967
0.0947945
0.094793
0.094795
0.094794
0.0947981
0.0947986
0.0948183
0.0948193
0.0948939
0.0949051
0.0950794
0.0952428
0.0954276
0.0959775
0.0963286
0.0971563
0.0931097
0.0857641
0.0982545
0.0965848
0.0959941
0.0956688
0.0951344
0.0950792
0.0948649
0.0948795
0.0948084
0.0948135
0.0947967
0.0947981
0.0947933
0.094794
0.0947926
0.0947935
0.0947973
0.0947977
0.0948173
0.0948111
0.0948934
0.0948839
0.0950919
0.0951869
0.0955609
0.0960595
0.0967364
0.0979321
0.0931032
0.0858353
0.100151
0.0971421
0.0958816
0.0959722
0.095099
0.0951657
0.0948552
0.0948946
0.0948071
0.0948185
0.0947943
0.0947962
0.0947922
0.094792
0.0947929
0.0947917
0.0947967
0.0947932
0.0948158
0.0948037
0.0948962
0.0948635
0.0951516
0.0951271
0.0958298
0.0959977
0.0974729
0.0989465
0.0933468
0.0862346
0.106614
0.0993709
0.0964545
0.0960658
0.0950201
0.0951171
0.0948317
0.0948763
0.0948001
0.0948122
0.0947944
0.0947972
0.0947932
0.0947936
0.0947935
0.0947932
0.0947976
0.0947943
0.0948143
0.0947985
0.0948815
0.0948294
0.0951406
0.0949971
0.0961755
0.0959116
0.0996348
0.101923
0.0937663
0.0873678
0.139868
0.105088
0.102516
0.097791
0.0963599
0.0954095
0.0952911
0.0950178
0.0950502
0.0949629
0.0949873
0.0949534
0.0949669
0.0949482
0.0949614
0.0949397
0.0949678
0.0949235
0.0950035
0.0949008
0.0951465
0.0949339
0.0957326
0.0951983
0.0982481
0.0961211
0.106781
0.100246
0.101152
0.0918777
0.268185
0.285033
0.185224
0.120027
0.126154
0.108796
0.11058
0.106614
0.106134
0.106126
0.105907
0.105999
0.105942
0.105974
0.105955
0.105982
0.105963
0.106022
0.105956
0.106165
0.106082
0.106744
0.110189
0.109072
0.12315
0.116462
0.167931
0.239305
0.444391
0.0855673
0.0960657
0.095841
0.095506
0.0954584
0.0952926
0.0951428
0.0949904
0.0855686
0.096086
0.0958561
0.0955044
0.0954852
0.0952677
0.0951472
0.0950474
0.0855661
0.0960687
0.0958203
0.0954832
0.0953746
0.0951978
0.0951044
0.0949481
0.0855663
0.0961021
0.0958129
0.0954641
0.0953377
0.0951539
0.0950935
0.0950482
0.0855642
0.0960909
0.0957948
0.095455
0.0953029
0.0951161
0.0950185
0.0949299
0.0855637
0.0961182
0.0957844
0.0954406
0.0952657
0.0950879
0.095013
0.0949652
0.0949141
0.0948918
0.094832
0.0948552
0.0948557
0.0948293
0.0948006
0.0948156
0.0948093
0.085563
0.0961154
0.0957746
0.0954397
0.0952542
0.0950745
0.094979
0.0949187
0.0948547
0.0948663
0.0948316
0.0948584
0.0948585
0.0948154
0.0947988
0.0948012
0.0948102
0.0949346
0.0948854
0.094842
0.0948547
0.0948746
0.0949242
0.0949566
0.0950769
0.0952145
0.095422
0.0959574
0.0959167
0.0920929
0.0855627
0.0961326
0.0957658
0.0954343
0.0952326
0.0950604
0.0949664
0.0949263
0.0948628
0.0948608
0.0948159
0.0948504
0.0949445
0.0948099
0.0948056
0.0948024
0.0948237
0.0950022
0.094909
0.094857
0.0948814
0.094889
0.0949343
0.0949615
0.0950814
0.0952163
0.095426
0.095953
0.0959169
0.092092
0.0855631
0.0961352
0.0957599
0.0954392
0.0952302
0.0950607
0.094961
0.0949178
0.0948554
0.0948515
0.0948192
0.0948101
0.0948227
0.0948613
0.0948217
0.0949396
0.0948366
0.094813
0.0948254
0.0948396
0.0948508
0.094866
0.0949168
0.0949487
0.0950729
0.0952075
0.0954272
0.095949
0.0959281
0.0920925
0.0855637
0.0961471
0.095755
0.0954434
0.0952235
0.09506
0.0949582
0.0949243
0.0948584
0.0948565
0.0948137
0.0948184
0.094819
0.0948106
0.094833
0.094803
0.0948024
0.0948538
0.0948376
0.0948453
0.0948643
0.0948749
0.0949302
0.0949563
0.095082
0.0952091
0.0954346
0.0959418
0.0959283
0.0920916
0.0855651
0.096152
0.0957499
0.0954518
0.0952236
0.0950644
0.0949569
0.094917
0.0948562
0.0948439
0.0948319
0.0948678
0.0949488
0.0948055
0.0948063
0.0948114
0.0948698
0.0948298
0.094845
0.0948432
0.0948655
0.0948711
0.0949242
0.0949509
0.0950792
0.0952058
0.0954416
0.0959392
0.0959394
0.0920916
0.0855671
0.0961637
0.0957495
0.0954664
0.0952313
0.0950772
0.0949726
0.0949398
0.0948727
0.0948667
0.0948438
0.0948659
0.0948589
0.0948279
0.094798
0.0948122
0.0948061
0.09498
0.0949102
0.0948478
0.094868
0.0948771
0.0949355
0.0949616
0.0950928
0.0952091
0.0954546
0.0959302
0.0959402
0.0920908
0.0855695
0.0961702
0.0957445
0.0954803
0.0952343
0.0950907
0.0949706
0.0949286
0.0948647
0.0948516
0.0948273
0.0948454
0.0948363
0.0948179
0.0948023
0.0948031
0.0948179
0.0949103
0.0948759
0.0948435
0.0948672
0.0948813
0.0949313
0.0949599
0.0950917
0.095209
0.0954665
0.095927
0.0959538
0.092091
0.0855733
0.0961895
0.0957498
0.095502
0.0952506
0.0951043
0.0950064
0.094966
0.0948975
0.0948802
0.0948412
0.094868
0.0948687
0.0948145
0.0947989
0.0947954
0.0948131
0.0949801
0.0948947
0.0948435
0.0948437
0.0948822