/*--------------------------------*- C++ -*----------------------------------*\
  =========                 |
  \\      /  F ield         | OpenFOAM: The Open Source CFD Toolbox
   \\    /   O peration     | Website:  https://openfoam.org
    \\  /    A nd           | Version:  10
     \\/     M anipulation  |
\*---------------------------------------------------------------------------*/
FoamFile
{
    format      ascii;
    class       volScalarField;
    location    "0.1";
    object      k_0;
}
// * * * * * * * * * * * * * * * * * * * * * * * * * * * * * * * * * * * * * //

dimensions      [0 2 -2 0 0 0 0];

internalField   nonuniform List<scalar> 
116800
(
0.0824647
0.0887374
0.0901755
0.086097
0.0872236
0.0824649
0.0887384
0.0901706
0.0860968
0.0872189
0.0857347
0.0824651
0.0887394
0.0901645
0.0860968
0.0872058
0.0857345
0.0863284
0.0856492
0.0824652
0.0887402
0.0901693
0.0860983
0.0872147
0.0857355
0.0863394
0.0856503
0.0859718
0.0856393
0.0858077
0.0856512
0.0857451
0.0856639
0.0857232
0.0824654
0.088741
0.0901675
0.0860994
0.0872063
0.0857362
0.0863243
0.08565
0.0859588
0.0856401
0.0857999
0.0856534
0.0857394
0.0856665
0.0857205
0.0856696
0.0824655
0.0887418
0.0901807
0.0861022
0.0872264
0.0857381
0.0863449
0.0856525
0.0859727
0.0856405
0.0858055
0.0856531
0.0857409
0.085668
0.0857202
0.0856723
0.0857256
0.0824657
0.0887428
0.0901813
0.0861042
0.0872217
0.0857395
0.0863353
0.0856531
0.0859649
0.0856417
0.0858007
0.0856552
0.0857366
0.0856704
0.0857194
0.0856742
0.0857278
0.0856625
0.0824659
0.0887439
0.0901954
0.0861076
0.0872411
0.0857418
0.0863534
0.0856559
0.0859795
0.0856425
0.085807
0.0856549
0.085739
0.0856726
0.0857191
0.0856793
0.085724
0.0856685
0.0857594
0.0856455
0.0858624
0.0824662
0.0887454
0.0901969
0.0861101
0.0872387
0.0857437
0.0863481
0.0856572
0.0859758
0.0856438
0.0858054
0.0856563
0.0857391
0.0856742
0.0857203
0.0856807
0.0857268
0.0856686
0.0857628
0.0856468
0.0858646
0.0856292
0.0861093
0.0856356
0.0866263
0.0856619
0.0880051
0.0858281
0.0926059
0.0878401
0.0824666
0.0887473
0.0902064
0.0861134
0.0872494
0.085746
0.0863566
0.0856596
0.0859818
0.085646
0.0858069
0.0856589
0.0857395
0.085678
0.0857206
0.0856864
0.085725
0.0856753
0.0857594
0.0856505
0.0858592
0.0856307
0.0861027
0.0856363
0.08662
0.0856632
0.0879987
0.0858279
0.0925996
0.0878407
0.0824671
0.0887497
0.0902068
0.0861163
0.0872457
0.0857482
0.0863514
0.0856611
0.0859783
0.0856476
0.0858066
0.0856603
0.0857421
0.0856791
0.0857232
0.0856878
0.0857303
0.0856735
0.0857668
0.0856509
0.0858641
0.0856326
0.0861061
0.0856381
0.0866198
0.0856645
0.0879957
0.0858278
0.0925934
0.0878416
0.0824677
0.0887528
0.0902104
0.0861197
0.087247
0.0857507
0.0863517
0.0856631
0.0859789
0.0856496
0.0858075
0.0856627
0.0857434
0.0856838
0.0857245
0.0856926
0.0857285
0.0856807
0.0857618
0.0856553
0.0858545
0.0856344
0.0860954
0.0856387
0.0866095
0.0856662
0.0879851
0.0858276
0.0925838
0.0878425
0.0824686
0.0887567
0.0902076
0.086123
0.0872376
0.0857533
0.0863422
0.0856644
0.0859717
0.0856518
0.085804
0.0856658
0.0857436
0.085686
0.0857275
0.0856925
0.085736
0.0856786
0.0857696
0.0856559
0.0858594
0.0856368
0.0860973
0.0856408
0.0866058
0.0856681
0.087977
0.0858275
0.0925733
0.0878436
0.0824697
0.0887616
0.0902063
0.0861269
0.0872309
0.0857563
0.0863374
0.0856663
0.0859706
0.0856534
0.0858063
0.0856668
0.0857471
0.0856902
0.0857285
0.0856993
0.0857317
0.0856894
0.0857618
0.085662
0.0858487
0.0856393
0.086083
0.0856416
0.0865908
0.0856704
0.0879606
0.0858273
0.0925586
0.0878449
0.0824712
0.0887678
0.0901984
0.086131
0.0872123
0.0857594
0.0863211
0.0856677
0.0859579
0.0856564
0.085802
0.0856719
0.085748
0.0856933
0.0857321
0.0856993
0.0857381
0.0856871
0.0857688
0.0856629
0.0858543
0.0856423
0.0860835
0.0856443
0.086583
0.0856733
0.0879455
0.0858272
0.0925415
0.0878466
0.0824731
0.0887758
0.0901936
0.0861362
0.087199
0.0857633
0.086314
0.0856701
0.0859552
0.0856585
0.0858036
0.0856744
0.0857508
0.0856978
0.0857334
0.085706
0.0857359
0.0856973
0.0857632
0.0856691
0.085844
0.0856456
0.0860665
0.0856457
0.0865633
0.0856767
0.0879207
0.085827
0.0925185
0.0878486
0.0824757
0.0887861
0.0901781
0.0861416
0.0871676
0.0857672
0.0862892
0.0856718
0.0859362
0.0856631
0.0857971
0.0856821
0.0857518
0.0857015
0.0857378
0.0857059
0.0857445
0.0856942
0.0857715
0.0856703
0.085849
0.0856492
0.0860598
0.0856491
0.0865497
0.0856811
0.0878942
0.0858269
0.0924901
0.0878516
0.0824791
0.0887996
0.0901705
0.0861493
0.0871484
0.0857724
0.0862817
0.0856749
0.0859302
0.0856668
0.0857976
0.0856867
0.0857536
0.0857072
0.085739
0.0857128
0.0857416
0.0857034
0.085767
0.0856769
0.0858394
0.0856536
0.0860365
0.0856518
0.0865255
0.0856863
0.0878567
0.0858267
0.0924524
0.0878555
0.0824838
0.0888174
0.0901406
0.086157
0.0871011
0.085777
0.0862513
0.0856769
0.0859098
0.085673
0.0857919
0.0856967
0.0857533
0.085714
0.0857424
0.0857151
0.0857479
0.0857047
0.0857723
0.0856804
0.0858403
0.0856581
0.0860257
0.0856562
0.0865039
0.0856928
0.0878085
0.0858265
0.092401
0.0878611
0.0824902
0.0888412
0.0901248
0.0861686
0.087072
0.0857829
0.0862412
0.0856809
0.0859036
0.0856785
0.0857929
0.0857009
0.0857569
0.085717
0.0857445
0.0857201
0.0857466
0.0857113
0.0857695
0.0856866
0.0858333
0.0856632
0.086007
0.0856611
0.0864757
0.0857008
0.0877474
0.0858263
0.0923327
0.0878691
0.0825002
0.0888733
0.0900512
0.0861777
0.087
0.0857864
0.0862074
0.0856848
0.0858868
0.0856877
0.0857896
0.0857154
0.0857569
0.0857278
0.085748
0.0857273
0.0857527
0.0857176
0.0857734
0.0856943
0.0858308
0.0856699
0.0859875
0.0856661
0.0864297
0.0857118
0.0876571
0.0858258
0.0922227
0.0878797
0.0825145
0.0889153
0.0900119
0.0861938
0.0869507
0.0857921
0.0861795
0.0856909
0.0858778
0.0856949
0.08579
0.0857183
0.0857603
0.085729
0.0857508
0.08573
0.0857533
0.0857226
0.0857722
0.0857007
0.0858251
0.0856762
0.0859677
0.0856721
0.0863713
0.0857245
0.0875595
0.0858265
0.0920772
0.0878958
0.0825431
0.0889702
0.0897893
0.0861944
0.0868247
0.0857871
0.086115
0.0856998
0.0858662
0.0857139
0.0857933
0.0857385
0.0857673
0.0857463
0.0857599
0.0857456
0.085763
0.0857382
0.085779
0.0857194
0.0858237
0.0856887
0.0859438
0.0856772
0.0862916
0.0857278
0.0873764
0.0858223
0.0917913
0.0879116
0.0825928
0.0890276
0.0897065
0.0862137
0.0867589
0.0857923
0.0860725
0.0857108
0.0858579
0.0857234
0.0857935
0.0857433
0.0857709
0.0857496
0.0857641
0.0857493
0.0857662
0.0857441
0.0857803
0.0857284
0.0858198
0.0856996
0.0859252
0.0856857
0.0862303
0.0857342
0.0871967
0.0858264
0.0914267
0.0879336
0.082741
0.0891199
0.0890242
0.086179
0.0865056
0.0857989
0.0860062
0.0857676
0.0858703
0.085786
0.0858264
0.0857952
0.0858094
0.0857971
0.0858036
0.0857958
0.0858047
0.0857919
0.085814
0.0857824
0.0858405
0.0857583
0.0859103
0.0857191
0.0861128
0.0857287
0.0867829
0.0858217
0.0905309
0.087897
0.0832083
0.0892726
0.0892343
0.0862748
0.0864837
0.0858741
0.0860478
0.0858497
0.085937
0.0858671
0.0859005
0.0858744
0.0858865
0.0858756
0.0858818
0.0858747
0.085883
0.0858726
0.0858913
0.0858661
0.0859139
0.0858472
0.0859713
0.0858053
0.0861272
0.0857945
0.0866065
0.0858927
0.0895748
0.0879818
0.0858024
0.0932939
0.0921093
0.0867776
0.0863565
0.0859872
0.0858968
0.0858651
0.0858401
0.0858311
0.085822
0.0858176
0.0858132
0.0858108
0.0858087
0.0858076
0.0858068
0.085807
0.0858073
0.085809
0.0858106
0.0858141
0.0858204
0.0858238
0.085888
0.085855
0.0861656
0.0861342
0.0895179
0.0942893
0.0864812
0.100042
0.0993161
0.0988481
0.0962781
0.0864819
0.100063
0.0993417
0.0988701
0.0962949
0.0959044
0.0864826
0.100066
0.0993478
0.0988838
0.0963048
0.0959221
0.0952631
0.0951246
0.0864829
0.100071
0.0993488
0.098882
0.0963015
0.0959104
0.0952556
0.09512
0.0949627
0.0949155
0.094875
0.0948607
0.0948511
0.0948466
0.094844
0.0864834
0.100065
0.099337
0.0988828
0.0962986
0.0959315
0.0952727
0.0951321
0.0949693
0.0949181
0.0948759
0.0948602
0.0948492
0.0948457
0.0948436
0.0948464
0.0864834
0.100056
0.0993185
0.0988602
0.0962817
0.0959128
0.0952606
0.0951286
0.0949677
0.0949185
0.0948762
0.0948623
0.0948524
0.0948469
0.0948449
0.0948454
0.0948446
0.0864839
0.100049
0.0993035
0.0988578
0.0962747
0.0959249
0.0952684
0.0951407
0.0949746
0.0949236
0.0948798
0.0948643
0.0948508
0.0948462
0.0948442
0.0948474
0.0948452
0.0948548
0.0864841
0.100037
0.0992805
0.0988353
0.0962573
0.095913
0.0952611
0.0951369
0.0949704
0.0949229
0.0948785
0.0948667
0.0948554
0.0948474
0.094846
0.0948457
0.0948458
0.0948547
0.0948612
0.094903
0.0949158
0.0864848
0.100035
0.0992707
0.0988357
0.0962513
0.0959186
0.0952615
0.0951409
0.0949712
0.0949247
0.0948804
0.0948665
0.0948552
0.0948474
0.0948461
0.0948463
0.0948455
0.0948555
0.0948601
0.094903
0.0949155
0.0950509
0.0950794
0.0955189
0.0956256
0.0971158
0.0982021
0.100341
0.101962
0.0987434
0.0864855
0.100029
0.0992558
0.0988259
0.096242
0.0959164
0.0952617
0.0951427
0.0949737
0.0949285
0.0948841
0.0948677
0.094855
0.0948477
0.0948468
0.0948459
0.0948459
0.0948546
0.094861
0.0949042
0.0949196
0.0950531
0.095087
0.0955265
0.0956377
0.0971245
0.0982175
0.100346
0.101971
0.0987296
0.0864867
0.100034
0.0992545
0.0988335
0.0962408
0.0959208
0.0952612
0.0951425
0.0949715
0.0949269
0.0948824
0.0948658
0.0948547
0.0948486
0.0948484
0.0948471
0.0948461
0.0948569
0.0948594
0.0949001
0.0949143
0.0950459
0.0950803
0.0955181
0.0956317
0.0971136
0.098214
0.100336
0.101976
0.0987184
0.0864883
0.100039
0.0992526
0.0988397
0.0962391
0.0959231
0.0952609
0.0951419
0.0949701
0.094927
0.0948832
0.094867
0.0948572
0.0948489
0.0948478
0.0948469
0.0948463
0.0948555
0.0948595
0.0949008
0.0949175
0.0950479
0.0950873
0.0955249
0.0956449
0.097124
0.0982348
0.100344
0.101989
0.0986978
0.0864904
0.100054
0.0992622
0.09886
0.0962457
0.0959291
0.0952626
0.0951416
0.09497
0.0949262
0.0948827
0.0948669
0.0948548
0.0948487
0.0948475
0.0948485
0.0948464
0.0948559
0.0948576
0.0948958
0.0949102
0.0950386
0.095079
0.0955157
0.0956414
0.0971175
0.0982408
0.100342
0.102001
0.0986776
0.0864931
0.100072
0.0992747
0.098884
0.0962518
0.0959324
0.0952584
0.0951355
0.0949614
0.0949196
0.0948776
0.0948675
0.0948597
0.0948497
0.0948493
0.0948476
0.0948472
0.094855
0.0948599
0.0948997
0.0949157
0.095042
0.0950863
0.0955214
0.0956556
0.0971303
0.0982685
0.100354
0.102021
0.0986465
0.0864966
0.1001
0.0992978
0.0989207
0.0962661
0.0959402
0.0952618
0.0951352
0.0949629
0.094918
0.0948771
0.0948651
0.094856
0.0948495
0.0948485
0.0948485
0.0948474
0.0948553
0.0948576
0.0948942
0.0949055
0.0950307
0.0950752
0.0955101
0.0956535
0.0971287
0.0982861
0.10036
0.102044
0.0986123
0.0865009
0.100133
0.0993249
0.0989625
0.0962792
0.095946
0.0952586
0.0951274
0.0949553
0.0949114
0.0948739
0.0948648
0.0948582
0.09485
0.09485
0.0948482
0.0948483
0.0948551
0.0948589
0.0948954
0.0949082
0.0950312
0.0950785
0.0955116
0.0956659
0.0971433
0.0983217
0.100378
0.102075
0.0985642
0.0865067
0.100183
0.0993649
0.099019
0.0963003
0.0959544
0.095262
0.0951254
0.0949571
0.0949095
0.0948738
0.0948616
0.0948535
0.0948502
0.0948493
0.0948496
0.0948481
0.0948549
0.0948555
0.0948875
0.0948962
0.0950158
0.0950622
0.0954948
0.0956624
0.0971472
0.098355
0.100395
0.102116
0.0985046
0.0865141
0.100235
0.0994026
0.0990777
0.0963155
0.0959568
0.0952567
0.0951105
0.0949506
0.0949049
0.0948725
0.0948609
0.094855
0.0948501
0.0948494
0.0948492
0.0948486
0.0948555
0.0948561
0.0948882
0.094897
0.0950152
0.0950598
0.0954898
0.0956679
0.0971608
0.0983951
0.100421
0.102168
0.0984274
0.0865244
0.100327
0.0994674
0.0991622
0.0963392
0.0959552
0.0952531
0.0950963
0.0949476
0.0948994
0.0948714
0.0948582
0.0948534
0.0948499
0.0948489
0.0948496
0.0948484
0.0948548
0.0948542
0.0948825
0.0948886
0.0950008
0.0950397
0.0954694
0.0956598
0.097162
0.0984356
0.100464
0.102252
0.0983167
0.0865382
0.100417
0.0995107
0.0992384
0.0963501
0.0959428
0.0952434
0.0950793
0.094943
0.0948951
0.0948701
0.0948572
0.0948532
0.0948495
0.0948486
0.0948494
0.0948489
0.0948552
0.0948535
0.0948821
0.0948855
0.0949961
0.0950288
0.0954557
0.0956487
0.0971617
0.0984613
0.100515
0.102356
0.0981836
0.0865599
0.100627
0.0996169
0.0993416
0.0963606
0.0958936
0.0952232
0.0950503
0.0949373
0.0948868
0.094869
0.0948553
0.0948528
0.0948489
0.0948487
0.0948488
0.094848
0.0948546
0.0948524
0.0948782
0.0948783
0.0949827
0.095008
0.0954233
0.095611
0.0971405
0.0984829
0.100611
0.10255
0.0979585
0.0865899
0.100859
0.0996662
0.0994413
0.0963951
0.0958439
0.0952219
0.0950315
0.0949364
0.0948822
0.0948689
0.0948537
0.0948518
0.0948488
0.0948478
0.0948491
0.0948477
0.094854
0.094851
0.0948763
0.0948735
0.0949744
0.0949909
0.0953995
0.0955666
0.0971423
0.098472
0.100743
0.102788
0.0977176
0.0866429
0.101554
0.0998815
0.0994663
0.0963639
0.0956793
0.0951843
0.0949858
0.0949253
0.0948712
0.0948657
0.0948513
0.0948516
0.0948479
0.0948481
0.0948484
0.0948478
0.0948533
0.0948507
0.0948725
0.0948667
0.0949553
0.0949589
0.0953296
0.0954546
0.0970234
0.0983508
0.100964
0.103285
0.0972531
0.0867021
0.10277
0.10017
0.0994032
0.0965878
0.0956054
0.0952332
0.0949745
0.0949334
0.0948712
0.0948677
0.0948524
0.094852
0.094849
0.0948483
0.0948492
0.0948477
0.0948533
0.0948495
0.0948719
0.0948636
0.094954
0.0949478
0.0953272
0.0954122
0.0970569
0.0981923
0.101443
0.103783
0.0969173
0.0867724
0.107318
0.101232
0.0985944
0.0963637
0.0952848
0.0951438
0.0949152
0.0949153
0.0948621
0.0948663
0.094853
0.0948547
0.0948515
0.0948521
0.0948521
0.0948523
0.094856
0.0948548
0.0948697
0.094864
0.0949247
0.094913
0.0951869
0.0952117
0.0966269
0.0974911
0.101722
0.1051
0.0965756
0.0873961
0.134306
0.107055
0.102452
0.0980626
0.0962316
0.0954804
0.0953212
0.0951305
0.0951412
0.0950796
0.0950924
0.0950686
0.0950747
0.095062
0.0950682
0.0950542
0.0950699
0.095042
0.0950908
0.095026
0.0951836
0.0950557
0.0955984
0.0954716
0.0977356
0.0980457
0.105575
0.104032
0.104067
0.0919301
0.23156
0.255461
0.171131
0.1165
0.116264
0.108289
0.106982
0.106939
0.106461
0.106633
0.106511
0.106555
0.106523
0.106535
0.106526
0.106534
0.106526
0.106548
0.106514
0.106616
0.106443
0.106926
0.10623
0.10824
0.110964
0.112853
0.153456
0.221548
0.347382
0.0860689
0.100927
0.0990462
0.096376
0.0860698
0.100937
0.0990783
0.0963912
0.0955669
0.0953152
0.0860698
0.100939
0.0990628
0.0964052
0.0955611
0.0953289
0.0950437
0.0949825
0.0860702
0.100944
0.0990749
0.0963952
0.0955652
0.0953201
0.0950416
0.0949989
0.0949087
0.0948754
0.0948555
0.0948447
0.0948416
0.0948407
0.0948394
0.0860699
0.100942
0.0990442
0.0964011
0.0955431
0.0953221
0.0950386
0.0949746
0.0948961
0.0948705
0.0948547
0.0948456
0.0948428
0.0948406
0.0948389
0.0948388
0.0860701
0.100946
0.0990373
0.0963757
0.0955262
0.0953033
0.0950336
0.0949998
0.0949111
0.0948789
0.0948571
0.0948456
0.0948424
0.09484
0.0948392
0.0948393
0.0948407
0.0860698
0.100946
0.0990147
0.0963803
0.0955127
0.0953019
0.0950259
0.094978
0.0948962
0.0948732
0.0948566
0.0948483
0.0948514
0.0948409
0.0948395
0.0948397
0.0948396
0.0948451
0.0860699
0.10095
0.0990009
0.0963597
0.0954936
0.0952866
0.0950203
0.0949885
0.0949059
0.0948842
0.0948602
0.094845
0.0948463
0.0948422
0.0948392
0.0948415
0.0948409
0.0948591
0.0948567
0.0948718
0.0948851
0.0860701
0.100955
0.0989876
0.0963646
0.0954865
0.0952868
0.0950146
0.0949792
0.0948948
0.0948798
0.0948575
0.0948456
0.0948474
0.0948406
0.0948399
0.0948415
0.0948405
0.0948538
0.0948528
0.0948687
0.0948814
0.0949255
0.0949685
0.0950664
0.0952382
0.0955886
0.0964356
0.0993576
0.099578
0.0946523
0.0860704
0.100961
0.0989757
0.0963563
0.0954748
0.0952816
0.0950126
0.0949839
0.0949015
0.094884
0.0948602
0.0948468
0.0948516
0.0948412
0.0948395
0.0948409
0.0948426
0.0948604
0.0948564
0.094872
0.0948871
0.0949278
0.0949724
0.0950686
0.0952426
0.0955876
0.0964415
0.0993535
0.0995849
0.0946487
0.086071
0.100971
0.0989681
0.0963632
0.0954723
0.0952843
0.0950112
0.0949813
0.0948979
0.0948817
0.094859
0.0948461
0.0948452
0.0948411
0.0948415
0.0948472
0.0948426
0.0948501
0.0948516
0.0948677
0.0948813
0.0949212
0.0949665
0.0950638
0.0952383
0.0955783
0.0964406
0.0993432
0.0995945
0.0946498
0.0860717
0.100982
0.0989617
0.0963657
0.0954689
0.0952842
0.0950105
0.0949834
0.0948997
0.0948832
0.0948593
0.0948462
0.094847
0.0948404
0.0948429
0.0948405
0.0948419
0.0948539
0.0948529
0.0948694
0.094885
0.0949242
0.0949727
0.0950697
0.0952462
0.0955796
0.0964498
0.0993377
0.0996044
0.0946455
0.0860729
0.100997
0.0989565
0.0963778
0.0954703
0.0952884
0.0950105
0.0949817
0.0948987
0.0948802
0.0948597
0.0948476
0.0948499
0.0948413
0.0948414
0.0948431
0.0948412
0.0948491
0.0948529
0.0948673
0.0948834
0.0949202
0.0949684
0.0950652
0.0952444
0.0955728
0.0964544
0.0993293
0.0996186
0.0946445
0.0860743
0.101017
0.0989564
0.0963893
0.0954746
0.0952905
0.0950109
0.094984
0.0948995
0.0948816
0.0948608
0.0948455
0.0948477
0.0948431
0.0948414
0.0948434
0.0948419
0.0948603
0.0948558
0.0948687
0.094885
0.094924
0.0949749
0.0950738
0.095255
0.095578
0.0964684
0.099322
0.0996338
0.0946391
0.0860762
0.101039
0.0989549
0.0964106
0.0954801
0.0952996
0.0950121
0.0949814
0.0948969
0.0948772
0.0948573
0.094845
0.0948476
0.0948419
0.0948422
0.0948428
0.094842
0.0948533
0.0948529
0.0948695
0.0948836
0.0949216
0.0949705
0.0950675
0.0952542
0.0955748
0.0964791
0.0993134
0.099656
0.0946353
0.0860787
0.101069
0.0989636
0.0964283
0.0954897
0.0953
0.0950149
0.0949857
0.0949002
0.0948811
0.0948614
0.0948445
0.0948504
0.0948426
0.0948422
0.0948418
0.0948433
0.094859
0.0948531
0.0948677
0.0948787
0.0949227
0.0949743
0.0950763
0.0952663
0.095585
0.0964998
0.0993019
0.0996818
0.0946285
0.0860821
0.101106
0.0989708
0.0964647
0.095502
0.095318
0.0950185
0.0949787
0.094896
0.094873
0.094856
0.0948445
0.0948485
0.094843
0.0948453
0.094843
0.0948455
0.0948472
0.0948487
0.0948696
0.0948796
0.0949217
0.0949711
0.095069
0.0952646
0.0955854
0.0965185
0.0992901
0.0997195
0.0946209
0.0860862
0.101154
0.0989853
0.0964859
0.0955122
0.0953078
0.0950211
0.0949884
0.0949046
0.0948743
0.0948579
0.0948446
0.0948461
0.0948421
0.0948442
0.0948434
0.0948434
0.0948481
0.0948484
0.0948642
0.0948742
0.0949231
0.0949733
0.0950781
0.0952758
0.0955986
0.0965454
0.0992679
0.0997668
0.0946135
0.0860932
0.101224
0.0990118
0.0965413
0.0955367
0.0953298
0.0950275
0.0949693
0.0948977
0.0948692
0.0948569
0.0948448
0.094847
0.0948414
0.0948443
0.0948427
0.0948432
0.0948469
0.0948456
0.0948647
0.0948709
0.0949225
0.0949697
0.0950723
0.0952707
0.0956043
0.0965777
0.0992596
0.0998388
0.0946
0.0861006
0.101315
0.0990277
0.0965631
0.0955411
0.0952985
0.0950275
0.0949743
0.0949026
0.0948682
0.0948568
0.094845
0.0948453
0.0948425
0.0948434
0.0948424
0.0948426
0.0948466
0.0948457
0.0948629
0.0948682
0.0949231
0.0949669
0.0950787
0.0952711
0.0956166
0.0966064
0.0992347
0.0999382
0.0945916
0.0861188
0.101473
0.0991032
0.0966189
0.0955797
0.095298
0.095034
0.0949581
0.0949009
0.0948643
0.0948583
0.0948448
0.0948454
0.0948415
0.0948425
0.0948425
0.0948426
0.0948457
0.0948436
0.0948601
0.0948605
0.0949147
0.0949518
0.0950781
0.095255
0.0956286
0.0966486
0.0992441
0.100113
0.0945674
0.086137
0.101684
0.0991468
0.0966287
0.0956107
0.095265
0.0950478
0.0949435
0.0948999
0.0948601
0.0948565
0.0948442
0.0948447
0.0948412
0.0948418
0.0948413
0.0948412
0.0948454
0.0948433
0.094861
0.0948582
0.094916
0.0949348
0.0950888
0.0952342
0.0956684
0.0966573
0.0992511
0.100363
0.0945635
0.0862015
0.102165
0.0993674
0.0966308
0.0956679
0.0952064
0.0950497
0.0949164
0.0948983
0.0948548
0.094856
0.0948428
0.0948437
0.0948406
0.0948406
0.0948411
0.0948404
0.0948442
0.0948417
0.0948569
0.0948516
0.0949066
0.0949102
0.0950796
0.0951775
0.0956996
0.0966563
0.0993956
0.100926
0.094543
0.0862728
0.103078
0.0996875
0.096477
0.0958724
0.0951519
0.0951037
0.0949014
0.094905
0.0948504
0.0948558
0.0948416
0.0948433
0.0948398
0.09484
0.09484
0.0948394
0.0948435
0.0948408
0.0948578
0.0948499
0.0949121
0.0948963
0.0951182
0.0951335
0.0958699
0.096531
0.0997499
0.101459
0.094638
0.0865898
0.107234
0.10065
0.0964159
0.0959139
0.0950381
0.0950762
0.0948759
0.0948973
0.0948483
0.0948552
0.0948426
0.0948438
0.094841
0.0948408
0.0948412
0.0948405
0.0948441
0.0948415
0.0948553
0.0948454
0.0949008
0.0948688
0.0950896
0.095012
0.0959882
0.0961915
0.10055
0.103163
0.0953079
0.0876913
0.135668
0.105755
0.100275
0.0971289
0.0958295
0.0953191
0.095208
0.09506
0.0950754
0.0950202
0.095034
0.0950111
0.095018
0.0950047
0.0950116
0.0949966
0.0950126
0.0949842
0.0950303
0.0949645
0.0951093
0.0949649
0.095451
0.0951323
0.097231
0.0960561
0.105224
0.100883
0.103355
0.0920383
0.257032
0.27927
0.174619
0.117102
0.11657
0.108173
0.106716
0.106823
0.10629
0.106506
0.106363
0.106423
0.106387
0.106407
0.106396
0.106414
0.106403
0.106443
0.106399
0.106539
0.106329
0.106908
0.106084
0.108334
0.110661
0.11339
0.155274
0.242176
0.42771
0.0857299
0.0967015
0.0961554
0.0955672
0.0955249
0.0952371
0.0857308
0.0967117
0.0961538
0.0955689
0.0955376
0.0952736
0.0951286
0.0950128
0.0857309
0.0967012
0.0961503
0.0955717
0.0955198
0.0952399
0.0950742
0.094967
0.0949484
0.094903
0.0948707
0.094859
0.0948473
0.0948457
0.094842
0.0857314
0.0967256
0.096139
0.0955623
0.0955143
0.0953013
0.095186
0.0950258
0.0949637
0.0949065
0.0948702
0.0948591
0.0948419
0.0948429
0.0948423
0.0948456
0.0857308
0.0967307
0.0961207
0.0955437
0.0954645
0.0952259
0.0950762
0.0949788
0.0949518
0.0949046
0.0948722
0.0948638
0.0948561
0.0948475
0.0948452
0.0948435
0.0948474
0.0857311
0.09675
0.0961125
0.0955382
0.0954598
0.0952486
0.0951214
0.095037
0.0949704
0.0949122
0.0948813
0.0948822
0.0948455
0.0948495
0.0948435
0.0948534
0.0948485
0.0948594
0.0857307
0.0967631
0.0960953
0.0955221
0.0954233
0.0952069
0.0950674
0.094992
0.0949273
0.094897
0.094879
0.0948929
0.0948663
0.0948481
0.0948443
0.0948451
0.0948665
0.0948605
0.0948809
0.094897
0.0949151
0.0857313
0.0967755
0.0960889
0.095522
0.0954183
0.0952129
0.0950746
0.0950102
0.0949301
0.0948981
0.0948821
0.0948859
0.0948627
0.0948479
0.0948443
0.0948435
0.094851
0.0948507
0.0948715
0.0949035
0.0949281
0.0949588
0.0950257
0.0950582
0.095261
0.0952811
0.0956964
0.0962328
0.096541
0.0933615
0.0857317
0.0967875
0.0960765
0.0955146
0.0953988
0.0951949
0.0950573
0.0949983
0.0949287
0.0949112
0.0948946
0.0948846
0.0948503
0.0948515
0.0948443
0.0948463
0.0948589
0.0948519
0.0948767
0.0949093
0.0949326
0.0949604
0.0950368
0.0950693
0.0952759
0.0952874
0.0957077
0.0962282
0.0965402
0.0933565
0.0857329
0.0967958
0.0960715
0.0955196
0.0953968
0.0951979
0.0950578
0.0950028
0.0949275
0.0949094
0.0948887
0.0948677
0.0948541
0.0948531
0.0948666
0.0948481
0.0948481
0.0948575
0.0948627
0.0948845
0.0949196
0.0949463
0.0950252
0.0950564
0.0952634
0.0952764
0.0957036
0.096222
0.0965539
0.093356
0.0857343
0.096804
0.0960648
0.0955232
0.095391
0.0951936
0.0950511
0.0949973
0.0949241
0.09491
0.0948928
0.0948732
0.0948627
0.0948522
0.0948446
0.0948515
0.0948557
0.0948526
0.0948623
0.0948926
0.0949293
0.0949555
0.0950381
0.0950676
0.0952777
0.0952824
0.095716
0.0962153
0.0965542
0.0933486
0.0857366
0.0968101
0.0960611
0.0955337
0.095394
0.0952005
0.0950577
0.0950048
0.0949317
0.0949176
0.0948983
0.0948891
0.0948504
0.0948498
0.0948461
0.0948519
0.0948467
0.0948567
0.0948561
0.094877
0.0949117
0.0949395
0.0950242
0.0950572
0.0952726
0.0952778
0.095722
0.0962101
0.0965656
0.0933442
0.0857394
0.0968148
0.09606
0.0955488
0.095398
0.095206
0.0950532
0.0949928
0.0949163
0.0948933
0.0948801
0.0948937
0.0948772
0.0948491
0.0948476
0.0948459
0.0948601
0.0948564
0.0948727
0.0949084
0.0949388
0.0949598
0.0950413
0.0950708
0.095288
0.0952866
0.0957387
0.0962021
0.096568
0.0933331
0.0857432
0.0968204
0.0960585
0.0955652
0.0954071
0.0952184
0.0950725
0.0950091
0.0949364
0.0949039
0.0948793
0.0948773
0.0948603
0.0948492
0.094846
0.0948452
0.0948513
0.0948522
0.0948629
0.0948913
0.0949076
0.0949403
0.0950201
0.0950595
0.0952866
0.0952878
0.0957563
0.0961963
0.0965791
0.093324
0.0857479
0.0968261
0.0960659
0.0955937
0.0954202
0.0952359
0.0950679
0.0949941
0.0949203
0.0948833
0.0948777
0.0948798
0.0948662
0.0948553
0.0948493
0.0948451
0.0948625
0.0948588
0.0948716
0.0949017
0.0949276
0.0949635
0.0950383
0.0950765
0.095302
0.0953016
0.0957802
0.0961883
0.0965876
0.0933081
0.0857543
0.0968356
0.0960693
0.0956187
0.0954373
0.0952523
0.0951096
0.0950277
0.0949592
0.094899
0.0948789
0.094868
0.0948505
0.0948541
0.0948511
0.0948507
0.094848
0.0948605
0.0948599
0.0948773
0.0948887
0.0949344
0.0950095
0.0950656
0.0953096
0.09531
0.0958137
0.0961861
0.0966023
0.0932924
0.0857621
0.0968559
0.0960859
0.0956606
0.0954561
0.0952707
0.0950865
0.0949813
0.0949435
0.0948935
0.0948721
0.0948624
0.094852
0.094851
0.0948466
0.0948464
0.0948507
0.0948499
0.0948563
0.0948824
0.0949062
0.09497
0.0950288
0.0950869
0.0953203
0.0953238
0.0958439
0.0961804
0.0966297
0.0932732
0.0857735
0.0968826
0.0961009
0.0957065
0.0954839
0.0952871
0.0951499
0.0949947
0.0949478
0.0948886
0.0948711
0.0948557
0.0948509
0.0948512
0.0948451
0.0948474
0.094847
0.0948488
0.0948545
0.0948716
0.0948923
0.0949472
0.0949882
0.0950828
0.0953346
0.0953486
0.0958965
0.096196
0.0966631
0.0932497
0.0857882
0.0969518
0.0961278
0.0957508
0.0955079
0.0952866
0.095103
0.094967
0.0949368
0.0948859
0.0948671
0.0948531
0.0948493
0.0948449
0.0948438
0.0948447
0.0948539
0.0948499
0.0948511
0.0948747
0.0948885
0.0949576
0.094982
0.095088
0.0953242
0.0953577
0.0959285
0.0962018
0.0967493
0.093228
0.0858112
0.0970818
0.0961908
0.0958484
0.0955562
0.0952666
0.0951055
0.0949493
0.0949375
0.0948738
0.0948677
0.0948569
0.0948514
0.0948462
0.0948453
0.0948426
0.0948437
0.0948511
0.0948512
0.0948704
0.0948797
0.0949618
0.0949809
0.0951128
0.0953258
0.0954105
0.0959914
0.0962783
0.0968899
0.0931937
0.0858429
0.0973758
0.0962557
0.0958776
0.0956249
0.0952381
0.0951251
0.0949395
0.0949373
0.0948681
0.0948697
0.0948474
0.0948461
0.0948438
0.0948424
0.0948444
0.0948434
0.0948474
0.0948479
0.0948673
0.0948684
0.0949422
0.0949533
0.0951264
0.0952886
0.0954732
0.0960193
0.0963671
0.0971954
0.0931916
0.0858989
0.0982792
0.0966243
0.0960359
0.0957121
0.095181
0.0951262
0.0949136
0.0949279
0.0948576
0.0948626
0.0948461
0.0948474
0.0948427
0.0948434
0.094842
0.0948429
0.0948466
0.0948471
0.0948664
0.0948603
0.0949418
0.0949325
0.0951388
0.0952332
0.0956058
0.0961007
0.0967735
0.0979639
0.0931838
0.0859696
0.100148
0.0971801
0.095924
0.0960131
0.0951458
0.0952116
0.0949039
0.0949428
0.0948563
0.0948676
0.0948437
0.0948456
0.0948416
0.0948414
0.0948422
0.0948411
0.094846
0.0948426
0.0948648
0.094853
0.0949445
0.0949122
0.095198
0.0951739
0.0958723
0.0960393
0.0975019
0.098979
0.093417
0.0863614
0.106484
0.0994067
0.0964796
0.0961077
0.0950667
0.0951636
0.0948805
0.0949247
0.0948494
0.0948613
0.0948437
0.0948465
0.0948425
0.0948429
0.0948429
0.0948426
0.0948469
0.0948437
0.0948634
0.0948478
0.0949299
0.0948784
0.0951869
0.0950449
0.0962152
0.0959556
0.0996626
0.101914
0.0938302
0.0874644
0.138988
0.104968
0.102371
0.0978054
0.0963726
0.0954518
0.0953297
0.0950652
0.0950951
0.0950107
0.095034
0.0950012
0.0950141
0.094996
0.0950087
0.0949877
0.0950149
0.094972
0.0950499
0.0949495
0.0951904
0.0949819
0.0957683
0.095244
0.0982593
0.0961648
0.106671
0.10019
0.101185
0.0919172
0.266285
0.279791
0.182998
0.119592
0.125476
0.108619
0.110247
0.106475
0.10597
0.105998
0.105786
0.105876
0.10582
0.105852
0.105833
0.105861
0.105843
0.105901
0.105836
0.106042
0.10593
0.106616
0.109882
0.108928
0.122591
0.116254
0.166478
0.234614
0.442957
0.085703
0.0961095
0.0958864
0.0955519
0.0955037
0.0953375
0.0951881
0.0950374
0.0857042
0.0961296
0.0959013
0.0955504
0.0955302
0.0953128
0.0951927
0.0950937
0.0857018
0.0961126
0.0958657
0.0955292
0.0954203
0.095244
0.0951501
0.0949958
0.0857019
0.0961456
0.0958584
0.0955102
0.0953836
0.0952005
0.0951402
0.0950945
0.0856999
0.0961345
0.0958403
0.0955011
0.095349
0.0951632
0.0950657
0.0949778
0.0856994
0.0961615
0.09583
0.0954869
0.0953121
0.0951352
0.0950605
0.0950129
0.0949623
0.09494
0.0948811
0.0949044
0.094904
0.0948783
0.0948499
0.0948648
0.0948584
0.0856987
0.0961588
0.0958202
0.0954859
0.0953007
0.095122
0.0950267
0.0949669
0.0949034
0.0949148
0.0948808
0.0949076
0.0949068
0.0948644
0.094848
0.0948504
0.0948593
0.0949826
0.0949339
0.0948907
0.0949033
0.094923
0.0949723
0.0950047
0.0951242
0.0952617
0.0954687
0.0960005
0.0959635
0.0921853
0.0856984
0.0961758
0.0958115
0.0954805
0.0952793
0.095108
0.0950144
0.0949744
0.0949114
0.0949094
0.0948649
0.0948992
0.0949928
0.094859
0.094855
0.0948517
0.0948728
0.0950497
0.0949573
0.0949056
0.0949298
0.0949374
0.0949824
0.0950096
0.0951287
0.0952635
0.0954727
0.0959961
0.0959637
0.0921844
0.0856988
0.0961784
0.0958056
0.0954854
0.0952768
0.0951084
0.095009
0.0949661
0.0949042
0.0949002
0.0948681
0.0948593
0.0948718
0.0949106
0.0948705
0.0949875
0.0948856
0.094862
0.0948743
0.0948884
0.0948995
0.0949146
0.094965
0.094997
0.0951203
0.0952548
0.0954739
0.0959921
0.0959748
0.0921848
0.0856994
0.0961901
0.0958008
0.0954895
0.0952702
0.0951076
0.0950063
0.0949725
0.0949071
0.0949051
0.0948627
0.0948676
0.094868
0.0948598
0.0948821
0.0948523
0.0948516
0.0949026
0.0948865
0.0948941
0.0949129
0.0949234
0.0949784
0.0950045
0.0951293
0.0952563
0.0954812
0.095985
0.095975
0.0921839
0.0857008
0.096195
0.0957956
0.0954979
0.0952702
0.095112
0.095005
0.0949653
0.0949049
0.0948926
0.0948808
0.0949165
0.094997
0.0948548
0.0948554
0.0948605
0.094919
0.0948789
0.0948938
0.094892
0.0949141
0.0949197
0.0949724
0.0949992
0.0951265
0.0952531
0.0954882
0.0959824
0.095986
0.0921839
0.0857028
0.0962066
0.0957952
0.0955123
0.0952779
0.0951247
0.0950206
0.0949879
0.0949214
0.0949153
0.0948928
0.0949151
0.094907
0.094877
0.0948472
0.0948614
0.0948552
0.0950279
0.0949586
0.0948965
0.0949166
0.0949256
0.0949836
0.0950097
0.0951399
0.0952563
0.0955011
0.0959734
0.0959868
0.0921831
0.0857053
0.0962131
0.0957902
0.0955262
0.0952809
0.095138
0.0950186
0.0949768
0.0949133
0.0949004
0.0948765
0.0948947
0.0948849
0.0948669
0.0948515
0.0948524
0.094867
0.0949585
0.0949245
0.0948922
0.0949157
0.0949297
0.0949793
0.0950081
0.095139
0.0952562
0.0955129
0.0959702
0.0960003
0.0921832
0.085709
0.0962322
0.0957953
0.0955477
0.095297
0.0951515
0.095054
0.0950137
0.0949458
0.0949285
0.0948902
0.0949173
0.0949171
0.0948636
0.0948481
0.0948448
0.0948623
0.0950279
0.0949432