/*--------------------------------*- C++ -*----------------------------------*\
  =========                 |
  \\      /  F ield         | OpenFOAM: The Open Source CFD Toolbox
   \\    /   O peration     | Website:  https://openfoam.org
    \\  /    A nd           | Version:  10
     \\/     M anipulation  |
\*---------------------------------------------------------------------------*/
FoamFile
{
    format      ascii;
    class       volScalarField;
    location    "0.1";
    object      nut;
}
// * * * * * * * * * * * * * * * * * * * * * * * * * * * * * * * * * * * * * //

dimensions      [0 2 -1 0 0 0 0];

internalField   nonuniform List<scalar> 
116800
(
0.00217547
0.00194791
0.00227303
0.00290689
0.00302529
0.00217548
0.00194799
0.00227572
0.00291143
0.00302521
0.00299836
0.00217548
0.00194863
0.0022812
0.00292324
0.00302497
0.00299835
0.00300913
0.00299679
0.00217548
0.001948
0.00227839
0.00291727
0.00302513
0.00299837
0.00300933
0.00299681
0.00300265
0.0029966
0.00299966
0.0029968
0.00299851
0.00299702
0.00299811
0.00217548
0.00194825
0.00228115
0.00292321
0.00302498
0.00299838
0.00300906
0.00299681
0.00300241
0.00299661
0.00299951
0.00299684
0.00299841
0.00299706
0.00299806
0.00299712
0.00217548
0.00194709
0.00227358
0.00290847
0.00302534
0.00299842
0.00300943
0.00299685
0.00300267
0.00299662
0.00299962
0.00299683
0.00299844
0.00299709
0.00299806
0.00299717
0.00299816
0.00217549
0.00194697
0.0022747
0.00290974
0.00302525
0.00299844
0.00300926
0.00299686
0.00300252
0.00299664
0.00299953
0.00299687
0.00299836
0.00299713
0.00299804
0.0029972
0.0029982
0.00299699
0.00217549
0.00194572
0.00226631
0.0028934
0.00302561
0.00299848
0.00300959
0.00299692
0.00300279
0.00299666
0.00299964
0.00299686
0.0029984
0.00299717
0.00299804
0.00299729
0.00299813
0.0029971
0.00299877
0.0029967
0.00300065
0.00217549
0.00194538
0.00226674
0.00289242
0.00302556
0.00299852
0.00300949
0.00299694
0.00300272
0.00299668
0.00299961
0.00299689
0.0029984
0.0029972
0.00299806
0.00299731
0.00299818
0.0029971
0.00299884
0.00299672
0.0030007
0.00299642
0.00300515
0.00299656
0.00301451
0.00299705
0.00277076
0.00244718
0.0012562
0.00291093
0.0021755
0.00194432
0.00226086
0.00288028
0.00302576
0.00299856
0.00300965
0.00299698
0.00300283
0.00299672
0.00299964
0.00299693
0.00299841
0.00299726
0.00299806
0.00299741
0.00299814
0.00299722
0.00299877
0.00299679
0.0030006
0.00299645
0.00300503
0.00299657
0.00301439
0.00299708
0.0027813
0.00245031
0.00125749
0.00290989
0.00217551
0.00194387
0.00226181
0.00287966
0.00302569
0.0029986
0.00300955
0.00299701
0.00300277
0.00299674
0.00299964
0.00299696
0.00299845
0.00299728
0.00299811
0.00299744
0.00299824
0.00299719
0.00299891
0.00299679
0.00300069
0.00299648
0.00300509
0.0029966
0.00301439
0.0029971
0.00278482
0.00244961
0.00125845
0.00290822
0.00217551
0.00194298
0.00225951
0.00287326
0.00302571
0.00299865
0.00300956
0.00299704
0.00300278
0.00299678
0.00299965
0.002997
0.00299848
0.00299737
0.00299813
0.00299753
0.0029982
0.00299731
0.00299881
0.00299687
0.00300051
0.00299651
0.0030049
0.00299661
0.0030142
0.00299713
0.00280113
0.0024548
0.00126035
0.00290716
0.00217553
0.00194247
0.00226233
0.00287554
0.00302554
0.00299869
0.00300938
0.00299707
0.00300265
0.00299682
0.00299959
0.00299705
0.00299848
0.0029974
0.00299818
0.00299752
0.00299834
0.00299728
0.00299896
0.00299688
0.0030006
0.00299656
0.00300493
0.00299665
0.00301414
0.00299716
0.00281193
0.00245683
0.00126213
0.00290547
0.00217554
0.00194155
0.00226326
0.00287403
0.00302542
0.00299874
0.0030093
0.0029971
0.00300263
0.00299685
0.00299963
0.00299707
0.00299854
0.00299748
0.0029982
0.00299765
0.00299826
0.00299747
0.00299881
0.00299699
0.0030004
0.0029966
0.00300467
0.00299666
0.00301386
0.00299721
0.00283685
0.00246491
0.00126499
0.00290415
0.00217556
0.00194092
0.00226927
0.00288108
0.00302509
0.0029988
0.003009
0.00299713
0.00300239
0.0029969
0.00299954
0.00299716
0.00299855
0.00299754
0.00299826
0.00299765
0.00299838
0.00299743
0.00299894
0.00299701
0.00300051
0.00299665
0.00300468
0.00299671
0.00301372
0.00299726
0.00285881
0.00247102
0.00126809
0.00290203
0.00217558
0.00193966
0.00227293
0.00288301
0.00302485
0.00299887
0.00300887
0.00299717
0.00300235
0.00299694
0.00299957
0.00299721
0.0029986
0.00299762
0.00299829
0.00299777
0.00299833
0.00299761
0.00299884
0.00299711
0.00300031
0.00299671
0.00300437
0.00299673
0.00301336
0.00299732
0.00289638
0.00248282
0.00127249
0.00289982
0.00217562
0.0019388
0.00228418
0.00289803
0.00302428
0.00299894
0.00300841
0.0029972
0.003002
0.00299702
0.00299945
0.00299734
0.00299862
0.00299769
0.00299836
0.00299777
0.00299849
0.00299755
0.00299898
0.00299714
0.0030004
0.00299677
0.00300424
0.0029968
0.00301311
0.0029974
0.00293775
0.00249591
0.00127797
0.0028965
0.00217566
0.00193678
0.00229087
0.00290495
0.00302394
0.00299903
0.00300828
0.00299725
0.00300188
0.00299708
0.00299946
0.00299742
0.00299865
0.00299779
0.00299838
0.00299789
0.00299843
0.00299772
0.0029989
0.00299725
0.00300022
0.00299685
0.00300381
0.00299684
0.00301267
0.00299749
0.00299665
0.00251308
0.00128511
0.00289183
0.00217573
0.00193569
0.00231204
0.00293344
0.00302308
0.00299911
0.00300772
0.00299728
0.00300151
0.00299719
0.00299935
0.0029976
0.00299864
0.00299791
0.00299844
0.00299793
0.00299854
0.00299774
0.00299899
0.00299731
0.00300024
0.00299693
0.00300361
0.00299692
0.00301227
0.00299761
0.00303568
0.0025412
0.00129556
0.00288551
0.00217581
0.0019329
0.00232637
0.00294781
0.00302256
0.00299921
0.00300753
0.00299735
0.00300139
0.00299729
0.00299937
0.00299767
0.00299871
0.00299796
0.00299848
0.00299802
0.00299852
0.00299786
0.00299894
0.00299742
0.0030001
0.00299702
0.00300327
0.002997
0.00301176
0.00299775
0.00303458
0.00257062
0.00130862
0.00287478
0.00217594
0.0019339
0.00237596
0.00300678
0.00302125
0.00299927
0.00300691
0.00299742
0.00300108
0.00299745
0.0029993
0.00299793
0.0029987
0.00299816
0.00299854
0.00299815
0.00299863
0.00299797
0.00299901
0.00299756
0.00300005
0.00299714
0.0030029
0.00299709
0.00301091
0.00299795
0.00303296
0.0026358
0.00133199
0.00286103
0.00217613
0.00193568
0.00241386
0.00300723
0.00302036
0.00299937
0.0030064
0.00299753
0.00300091
0.00299757
0.00299931
0.00299798
0.00299876
0.00299818
0.00299859
0.0029982
0.00299863
0.00299806
0.00299898
0.00299767
0.00299995
0.00299725
0.00300254
0.00299719
0.00300985
0.00299817
0.00303137
0.00270552
0.00136156
0.00283494
0.00217652
0.00195523
0.00255771
0.00300722
0.00301807
0.00299928
0.00300521
0.00299768
0.00300069
0.00299791
0.00299936
0.00299835
0.00299889
0.0029985
0.00299875
0.00299848
0.00299881
0.00299835
0.0029991
0.002998
0.00299992
0.00299747
0.0030021
0.00299728
0.00300839
0.00299822
0.00302806
0.00289416
0.00142962
0.00280543
0.00217719
0.0020029
0.0026417
0.00300761
0.0030171
0.00299958
0.00300456
0.00299792
0.00300058
0.00299812
0.00299941
0.00299848
0.002999
0.0029986
0.00299887
0.0029986
0.00299891
0.0029985
0.00299917
0.00299821
0.00299989
0.00299771
0.0030018
0.00299748
0.00300748
0.00299854
0.00302496
0.00300163
0.00153998
0.00276579
0.00217927
0.00212911
0.00302146
0.00300822
0.00301375
0.00300093
0.00300467
0.00300033
0.00300221
0.00300067
0.00300141
0.00300083
0.0030011
0.00300087
0.00300099
0.00300085
0.00300101
0.00300078
0.00300118
0.0030006
0.00300167
0.00300016
0.00300293
0.00299948
0.00300658
0.00299968
0.00301873
0.00300268
0.00190995
0.00273804
0.0021869
0.00232909
0.00257701
0.00301969
0.00302317
0.00301213
0.00301526
0.00301165
0.00301325
0.00301197
0.00301259
0.00301211
0.00301234
0.00301213
0.00301225
0.00301212
0.00301227
0.00301208
0.00301243
0.00301196
0.00301284
0.00301161
0.00301388
0.00301086
0.00301669
0.00301071
0.0030254
0.00301352
0.00247158
0.00210826
0.000418536
0.00101124
0.00185431
0.00289682
0.00315579
0.00314859
0.00314683
0.00314623
0.00314575
0.00314558
0.0031454
0.00314532
0.00314523
0.00314519
0.00314515
0.00314513
0.00314511
0.00314511
0.00314512
0.00314515
0.00314518
0.00314524
0.00314535
0.00314542
0.00314663
0.00314602
0.00315202
0.00315185
0.00139606
0.000756145
0.00292692
0.0074727
0.00931554
0.00873988
0.00970983
0.00292693
0.00747291
0.00931171
0.00873968
0.00970654
0.00957409
0.00292694
0.00747347
0.00931111
0.00874111
0.00970493
0.00957505
0.00983834
0.00981002
0.00292695
0.00747253
0.00931092
0.00873945
0.00970538
0.00957471
0.00983963
0.00981003
0.00988103
0.00986353
0.00989172
0.00988126
0.0098921
0.00988459
0.00989041
0.00292696
0.00747237
0.00931307
0.00874014
0.00970618
0.00957335
0.00983675
0.00980914
0.00987983
0.00986398
0.0098914
0.00988199
0.00989172
0.00988489
0.00989031
0.00988529
0.00292695
0.00747043
0.0093157
0.00873763
0.00970924
0.009571
0.00983894
0.00980832
0.00988022
0.00986319
0.00989155
0.00988149
0.00989198
0.00988516
0.00989015
0.00988573
0.00989035
0.00292696
0.0074697
0.00931816
0.00873758
0.00971075
0.00956984
0.00983767
0.00980707
0.00987898
0.00986279
0.00989073
0.00988162
0.00989144
0.00988529
0.00989
0.00988573
0.00989071
0.009884
0.00292697
0.00746735
0.00932124
0.00873497
0.00971398
0.00956659
0.00983903
0.00980641
0.0098798
0.00986205
0.00989113
0.00988072
0.00989182
0.00988545
0.00988979
0.00988622
0.00988996
0.00988523
0.00989175
0.00987161
0.00988635
0.00292698
0.00746636
0.00932292
0.00873464
0.00971523
0.00956609
0.00983896
0.00980619
0.00987964
0.0098619
0.00989072
0.00988077
0.00989166
0.00988532
0.00988973
0.00988605
0.00989007
0.00988468
0.00989204
0.00987116
0.00988641
0.00983214
0.00986412
0.00967739
0.009788
0.00912715
0.00945411
0.00755367
0.0082102
0.00467437
0.00292699
0.00746423
0.00932493
0.00873286
0.009717
0.00956392
0.0098389
0.00980546
0.00987911
0.00986108
0.00988992
0.0098807
0.00989131
0.0098855
0.00988943
0.00988638
0.0098895
0.00988551
0.00989146
0.00987193
0.00988545
0.00983258
0.00986273
0.00967804
0.00978583
0.00912797
0.00945185
0.00755414
0.00820877
0.00467533
0.00292701
0.00746315
0.00932553
0.00873275
0.00971729
0.00956438
0.00983884
0.009806
0.00987941
0.00986152
0.00989015
0.00988083
0.00989137
0.00988513
0.00988947
0.00988619
0.00988983
0.00988464
0.00989202
0.00987165
0.00988638
0.00983317
0.00986378
0.00967898
0.00978668
0.00912889
0.00945222
0.00755457
0.00820818
0.00467634
0.00292704
0.00746142
0.00932598
0.008732
0.00971753
0.00956421
0.0098387
0.0098062
0.00987949
0.00986151
0.00988985
0.00988064
0.00989108
0.00988533
0.00988917
0.00988622
0.00988921
0.00988529
0.00989149
0.00987275
0.00988555
0.009834
0.00986243
0.00968077
0.00978412
0.0091312
0.00944902
0.00755641
0.0082063
0.00467798
0.00292707
0.00746033
0.00932531
0.00873247
0.00971632
0.00956628
0.00983813
0.00980712
0.00987934
0.00986227
0.00988973
0.00988088
0.00989075
0.00988503
0.00988909
0.00988571
0.00988973
0.00988427
0.00989204
0.00987268
0.0098868
0.00983505
0.0098637
0.00968268
0.00978435
0.00913335
0.00944774
0.00755797
0.00820459
0.00467982
0.00292712
0.00745878
0.00932412
0.00873248
0.00971496
0.0095682
0.00983844
0.00980849
0.00988063
0.0098633
0.0098906
0.00988031
0.00989051
0.009885
0.00988879
0.00988597
0.00988869
0.00988537
0.00989091
0.00987355
0.00988552
0.00983606
0.0098623
0.0096857
0.00978145
0.00913732
0.00944323
0.00756119
0.00820156
0.00468248
0.00292718
0.00745754
0.00932187
0.00873395
0.00971205
0.0095724
0.00983748
0.00980999
0.00988011
0.00986459
0.00989036
0.00988113
0.00989051
0.00988473
0.0098887
0.00988536
0.00988901
0.00988433
0.00989147
0.0098736
0.00988724
0.00983759
0.00986403
0.00968891
0.00978127
0.0091412
0.00943992
0.00756452
0.00819802
0.00468566
0.00292725
0.00745567
0.00931887
0.00873467
0.00970903
0.00957574
0.00983748
0.00981186
0.00988115
0.00986574
0.00989077
0.00988094
0.00989026
0.00988466
0.00988833
0.00988555
0.00988822
0.0098851
0.00989063
0.00987464
0.00988649
0.00983921
0.00986331
0.00969347
0.00977851
0.00914714
0.00943378
0.00756963
0.00819294
0.00469002
0.00292735
0.007454
0.00931438
0.00873779
0.00970432
0.00958252
0.00983641
0.00981433
0.00988041
0.00986749
0.00989026
0.00988206
0.00988982
0.00988428
0.00988827
0.00988483
0.0098888
0.00988384
0.00989116
0.0098752
0.00988855
0.0098419
0.00986583
0.00969906
0.00977834
0.00915425
0.00942743
0.00757619
0.00818587
0.00469572
0.00292748
0.00745083
0.0093092
0.00873955
0.00970031
0.00958772
0.00983669
0.00981769
0.00988117
0.00986854
0.00989015
0.00988218
0.00988939
0.00988446
0.00988772
0.00988503
0.00988778
0.00988436
0.00989036
0.00987599
0.00988802
0.00984375
0.00986598
0.00970529
0.0097766
0.00916302
0.00941946
0.00758406
0.0081402
0.00470326
0.00292766
0.00744815
0.00929987
0.00874571
0.00969432
0.00959856
0.00983668
0.00982254
0.00988118
0.00987087
0.00988975
0.00988272
0.00988876
0.00988445
0.00988752
0.00988462
0.00988796
0.00988373
0.00989033
0.00987682
0.00988927
0.00984684
0.00986908
0.00971393
0.00977705
0.00917723
0.00941061
0.00759701
0.00800889
0.00471403
0.00292789
0.00744145
0.00929046
0.00875063
0.0096902
0.00960755
0.00983764
0.0098264
0.00988156
0.00987189
0.00988958
0.00988256
0.00988845
0.00988422
0.00988709
0.00988453
0.0098872
0.00988383
0.00988951
0.00987732
0.00988933
0.00984872
0.0098706
0.00972159
0.00977788
0.00919115
0.009403
0.00760925
0.00786538
0.00472821
0.00292827
0.00743653
0.00926915
0.00876996
0.00968468
0.00962956
0.00984033
0.00983421
0.00988198
0.00987477
0.00988911
0.00988325
0.00988775
0.00988457
0.00988674
0.00988459
0.00988711
0.00988374
0.0098892
0.00987842
0.00989014
0.00985279
0.00987369
0.00973678
0.0097828
0.00922067
0.00939463
0.00763671
0.00760273
0.00475059
0.00292878
0.0074176
0.00924653
0.00878411
0.0096755
0.00964769
0.00983982
0.00983873
0.00988157
0.00987568
0.00988853
0.00988269
0.00988721
0.00988389
0.00988618
0.009884
0.00988637
0.00988334
0.00988823
0.00987868
0.00989025
0.00985478
0.00987606
0.0097481
0.00978884
0.00924048
0.00939129
0.00765661
0.0073347
0.00477962
0.00292969
0.00738218
0.0091826
0.00885609
0.00967484
0.00969458
0.00984532
0.00985089
0.00988273
0.00987934
0.00988842
0.00988345
0.00988674
0.00988442
0.0098859
0.00988443
0.00988615
0.00988378
0.00988775
0.00988031
0.00989072
0.00986086
0.0098808
0.00977412
0.00980614
0.0093081
0.00940233
0.00771676
0.00680752
0.00482838
0.00293082
0.00723706
0.00906347
0.00890468
0.00963656
0.00971459
0.00983649
0.00985316
0.00988013
0.00987855
0.00988659
0.00988195
0.00988507
0.00988271
0.00988426
0.0098827
0.00988441
0.00988223
0.00988574
0.00987943
0.00988938
0.00986076
0.0098814
0.00977979
0.00981247
0.00933494
0.00942182
0.00772361
0.00654293
0.00487715
0.00293258
0.00624851
0.00870273
0.00912743
0.00966652
0.00978491
0.00984918
0.00986603
0.00988045
0.00987839
0.00988488
0.00988081
0.00988314
0.00988162
0.00988269
0.00988181
0.00988293
0.00988158
0.00988388
0.00988055
0.0098867
0.00986863
0.00988462
0.00981578
0.00984434
0.00950017
0.00951569
0.00786234
0.00533626
0.00494757
0.00294999
0.00502596
0.00610641
0.00808284
0.00954565
0.00925121
0.00971029
0.0095276
0.009675
0.00960526
0.00965652
0.00963161
0.00965212
0.00964321
0.00965399
0.00964836
0.00966
0.0096494
0.00967275
0.0096446
0.00970031
0.00962653
0.00975374
0.00956598
0.00979282
0.00923624
0.00953957
0.00567024
0.00528982
0.00412978
0.000553738
0.00382657
0.00411612
0.00396583
0.00392382
0.00380038
0.00375351
0.00369444
0.00370658
0.00368082
0.0036897
0.00367933
0.00368257
0.00367823
0.00368034
0.00367818
0.00368186
0.00367942
0.00368796
0.00368177
0.003702
0.00368441
0.00373313
0.00368861
0.00380918
0.00376214
0.00400103
0.00403166
0.00414869
0.00460727
0.00289217
0.00874547
0.00904059
0.00954979
0.00289219
0.00874352
0.00903421
0.00954641
0.00974943
0.00981336
0.00289219
0.00874331
0.00903584
0.00954346
0.00975086
0.00981009
0.00988843
0.00990484
0.00289219
0.0087418
0.00903325
0.00954511
0.00974971
0.00981217
0.00988906
0.00990041
0.00992652
0.00993534
0.00994152
0.00994436
0.00994549
0.0099456
0.0099461
0.00289219
0.00874207
0.00903792
0.00954383
0.0097552
0.00981182
0.00988989
0.00990718
0.0099301
0.0099369
0.00994195
0.00994435
0.00994538
0.00994638
0.00994677
0.00994633
0.00289219
0.00874067
0.009039
0.00954863
0.00975925
0.00981638
0.00989119
0.00990022
0.00992603
0.00993462
0.00994142
0.00994455
0.00994575
0.00994635
0.00994675
0.00994659
0.00994625
0.00289219
0.00874031
0.0090427
0.00954766
0.00976267
0.00981688
0.00989327
0.00990622
0.00993014
0.00993627
0.00994171
0.00994396
0.00994344
0.00994665
0.0099469
0.00994673
0.00994696
0.00994493
0.00289219
0.00873881
0.00904511
0.00955155
0.00976734
0.00982055
0.00989472
0.00990322
0.00992741
0.00993317
0.00994072
0.00994497
0.0099451
0.00994629
0.00994725
0.00994651
0.00994671
0.00994147
0.0099419
0.00993705
0.00993343
0.00289219
0.00873757
0.00904753
0.00955056
0.00976919
0.00982062
0.00989619
0.00990572
0.00993036
0.00993435
0.00994149
0.00994486
0.00994491
0.00994683
0.00994721
0.00994691
0.00994691
0.00994319
0.00994303
0.00993784
0.00993439
0.00992097
0.00990954
0.00988005
0.00983523
0.00973335
0.00954471
0.00883742
0.00885333
0.00492959
0.0028922
0.00873569
0.00904974
0.0095521
0.00977209
0.00982188
0.00989667
0.00990436
0.00992848
0.00993311
0.00994075
0.00994458
0.00994381
0.00994681
0.00994747
0.00994712
0.00994646
0.00994207
0.00994216
0.00993706
0.00993288
0.00992053
0.00990857
0.00987964
0.00983424
0.00973384
0.00954353
0.00883849
0.00885321
0.00492969
0.00289221
0.00873361
0.00905129
0.00955074
0.00977277
0.0098213
0.00989696
0.00990501
0.00992934
0.00993369
0.00994101
0.00994473
0.00994564
0.00994685
0.00994701
0.00994717
0.00994649
0.009944
0.00994331
0.00993807
0.00993432
0.00992213
0.00991005
0.00988083
0.00983538
0.00973612
0.0095438
0.00884035
0.00885316
0.00492974
0.00289222
0.00873092
0.00905265
0.00955022
0.00977365
0.00982137
0.0098971
0.00990439
0.0099288
0.00993324
0.00994095
0.00994473
0.00994513
0.00994713
0.00994673
0.00994724
0.00994668
0.00994336
0.00994311
0.0099378
0.00993344
0.00992144
0.00990843
0.00987939
0.00983345
0.00973612
0.00954197
0.00884223
0.00885315
0.00493017
0.00289224
0.00872783
0.0090538
0.00954795
0.00977338
0.00982047
0.00989707
0.0099049
0.00992909
0.00993411
0.00994088
0.00994438
0.00994429
0.00994694
0.00994709
0.00994658
0.00994717
0.00994453
0.00994311
0.0099382
0.00993379
0.00992239
0.0099095
0.00988053
0.00983392
0.00973789
0.00954106
0.00884427
0.00885291
0.00493067
0.00289226
0.00872378
0.00905416
0.00954575
0.00977235
0.00982008
0.00989692
0.00990431
0.00992885
0.00993377
0.00994064
0.00994494
0.00994499
0.00994648
0.00994705
0.00994721
0.00994675
0.00994264
0.00994251
0.00993808
0.00993349
0.00992158
0.00990785
0.00987846
0.0098313
0.00973711
0.0095382
0.00884687
0.00885272
0.00493161
0.00289229
0.00871914
0.00905476
0.00954172
0.00977105
0.00981799
0.00989662
0.00990516
0.00992959
0.00993515
0.00994164
0.00994516
0.00994501
0.00994673
0.00994674
0.00994749
0.00994684
0.00994381
0.00994325
0.00993775
0.00993385
0.00992217
0.00990901
0.00988012
0.00983156
0.00973818
0.00953602
0.00884959
0.00885217
0.00493289
0.00289233
0.00871283
0.00905381
0.00953845
0.00976871
0.00981811
0.00989592
0.00990413
0.00992881
0.0099342
0.00994063
0.00994541
0.00994426
0.00994637
0.00994665
0.00994694
0.00994624
0.00994288
0.00994325
0.00993852
0.00993536
0.00992209
0.0099081
0.00987804
0.00982854
0.00973633
0.00953178
0.0088535
0.00885143
0.00493474
0.00289239
0.00870511
0.00905323
0.00953156
0.00976578
0.00981381
0.00989499
0.00990621
0.00992999
0.00993659
0.00994201
0.0099453
0.00994526
0.00994618
0.0099458
0.00994687
0.00994671
0.00994481
0.00994433
0.00993802
0.00993514
0.00992237
0.0099091
0.00988011
0.00982898
0.00973682
0.00952802
0.00885787
0.00885012
0.00493748
0.00289246
0.00869427
0.00905149
0.00952785
0.00976331
0.00981668
0.00989444
0.00990371
0.00992779
0.00993632
0.00994149
0.0099453
0.00994515
0.00994621
0.009946
0.00994658
0.00994636
0.00994475
0.00994456
0.00993961
0.00993678
0.00992219
0.00990856
0.00987794
0.00982613
0.00973443
0.00952262
0.0088644
0.00884781
0.0049411
0.00289258
0.00867895
0.00904765
0.00951744
0.00975755
0.00981145
0.00989284
0.00990907
0.00992975
0.00993783
0.00994177
0.00994516
0.00994518
0.0099462
0.00994595
0.00994648
0.00994605
0.00994487
0.00994515
0.00993948
0.00993769
0.00992244
0.00990959
0.00987972
0.00982757
0.00973407
0.00951627
0.00887025
0.00884428
0.00494687
0.0028927
0.00865708
0.00904543
0.00951418
0.00975665
0.0098198
0.00989292
0.00990775
0.00992845
0.00993809
0.00994174
0.00994506
0.00994499
0.00994584
0.00994589
0.00994599
0.00994617
0.00994492
0.00994513
0.00993997
0.00993847
0.00992241
0.00991045
0.0098782
0.00982761
0.0097321
0.00951094
0.00887881
0.00883714
0.00495459
0.00289302
0.00861914
0.00903268
0.00950466
0.00974777
0.00982038
0.00989137
0.00991236
0.009929
0.0099392
0.00994135
0.00994491
0.00994508
0.00994587
0.009946
0.00994664
0.00994561
0.00994481
0.00994546
0.00994071
0.00994058
0.00992483
0.00991462
0.00987872
0.00983195
0.00973103
0.00950306
0.00888566
0.00882144
0.00496678
0.00289332
0.00856064
0.00902271
0.0095044
0.00974079
0.00982932
0.00988777
0.0099164
0.00992933
0.0099403
0.00994176
0.00994508
0.00994495
0.00994595
0.00994581
0.00994612
0.00994624
0.00994516
0.00994554
0.00994041
0.0099412
0.00992455
0.00991942
0.00987612
0.00983769
0.00972298
0.00950219
0.00889058
0.00879265
0.00498464
0.00289443
0.00802673
0.00897493
0.00950805
0.00972857
0.00984543
0.0098879
0.00992417
0.00992996
0.00994186
0.00994192
0.00994544
0.00994542
0.00994615
0.00994608
0.00994646
0.00994604
0.00994513
0.00994582
0.00994159
0.00994301
0.0099274
0.00992638
0.00987943
0.00985333
0.0097189
0.00950388
0.00887691
0.00869431
0.00500589
0.00289568
0.00707909
0.00888917
0.00954429
0.00968128
0.00986064
0.00987423
0.00992842
0.00992837
0.00994305
0.00994202
0.0099457
0.00994528
0.00994624
0.00994604
0.00994623
0.00994624
0.00994545
0.00994599
0.00994141
0.0099435
0.00992611
0.00993045
0.00986995
0.00986601
0.00968117
0.00953487
0.0088185
0.00857306
0.00502587
0.0029022
0.00565191
0.00855081
0.0095297
0.00967646
0.00988543
0.00988281
0.00993306
0.00993025
0.00994208
0.00994172
0.00994457
0.00994455
0.00994525
0.00994511
0.00994528
0.00994526
0.00994458
0.00994516
0.00994213
0.00994425
0.00992915
0.00993813
0.00987853
0.00990037
0.00965979
0.0096187
0.00857126
0.0061104
0.00501892
0.00283511
0.00537309
0.00772549
0.0082544
0.00955464
0.00933774
0.00976641
0.00960359
0.00974215
0.00967161
0.0097235
0.00969751
0.0097191
0.00970923
0.00972141
0.00971475
0.00972818
0.00971656
0.00974148
0.00971317
0.00976941
0.00969833
0.00981464
0.00964037
0.00983765
0.00935057
0.0096917
0.0058228
0.00652575
0.00463906
0.000543088
0.00409431
0.00423881
0.00391029
0.0037976
0.00369434
0.00363523
0.00357889
0.00359289
0.003568
0.00357738
0.00356689
0.0035708
0.00356625
0.00356898
0.00356651
0.0035708
0.00356796
0.00357701
0.0035705
0.00359103
0.00357362
0.00362226
0.0035787
0.00369787
0.00365137
0.00389478
0.00393408
0.00420782
0.00538159
0.00288278
0.00948891
0.00951487
0.00971352
0.00973796
0.0098264
0.00288279
0.00948923
0.00951526
0.00971373
0.00973552
0.00981738
0.00986337
0.00989965
0.00288279
0.00948808
0.00951538
0.00971205
0.00973905
0.0098254
0.00987805
0.00991239
0.00991983
0.00993407
0.00994431
0.00994795
0.00995169
0.00995211
0.00995361
0.0028828
0.0094887
0.00951813
0.00971551
0.00974203
0.00980969
0.00984692
0.00989622
0.00991602
0.00993359
0.00994481
0.00994839
0.00995362
0.00995331
0.00995354
0.00995244
0.00288279
0.00948758
0.0095215
0.00971912
0.0097539
0.00982923
0.00987733
0.00990884
0.00991895
0.0099338
0.00994414
0.00994684
0.00994955
0.00995203
0.00995413
0.00995353
0.00995198
0.0028828
0.00948771
0.00952365
0.00972145
0.00975647
0.00982451
0.00986561
0.00989268
0.00991383
0.0099318
0.00994156
0.00994165
0.00995282
0.00995156
0.00995365
0.00995039
0.00995204
0.00994831
0.00288279
0.00948652
0.00952707
0.00972476
0.00976538
0.00983498
0.00987998
0.00990485
0.00992596
0.00993585
0.00994211
0.0099381
0.00994742
0.00995222
0.00995487
0.00995323
0.00994655
0.00994802
0.00994153
0.00993615
0.00993022
0.0028828
0.00948592
0.00952877
0.00972536
0.00976747
0.00983433
0.00987876
0.0099003
0.00992552
0.00993588
0.00994132
0.00994037
0.00994855
0.00995239
0.00995515
0.00995396
0.00995155
0.00995137
0.00994462
0.00993448
0.00992638
0.00991587
0.009895
0.00988223
0.00981932
0.00980399
0.00967521
0.0094869
0.00948967
0.00504158
0.00288281
0.00948449
0.0095314
0.00972685
0.00977234
0.00983878
0.0098829
0.00990288
0.0099253
0.00993136
0.00993742
0.00994199
0.00995158
0.00995123
0.00995449
0.00995467
0.0099488
0.00995102
0.00994293
0.00993244
0.00992478
0.00991528
0.00989159
0.00987891
0.00981536
0.00980253
0.00967253
0.00948812
0.0094903
0.00504111
0.00288283
0.0094833
0.00953272
0.00972584
0.00977326
0.00983842
0.00988304
0.0099019
0.00992593
0.00993215
0.00993918
0.00994594
0.00995042
0.00995092
0.00995381
0.00995279
0.00995227
0.0099491
0.00994711
0.00993976
0.00992851
0.0099191
0.00989465
0.00988223
0.00981879
0.00980552
0.00967353
0.00948959
0.00949158
0.00504076
0.00288285
0.00948156
0.00953422
0.00972467
0.00977464
0.00983928
0.0098844
0.00990297
0.00992659
0.00993169
0.00993781
0.00994426
0.00994859
0.00995178
0.00995428
0.00995476
0.00994995
0.00995064
0.00994735
0.00993752
0.00992583
0.00991672
0.00989103
0.00987907
0.00981508
0.00980419
0.00967061
0.00949139
0.00949253
0.00504025
0.00288289
0.00947978
0.00953523
0.00972213
0.00977405
0.00983763
0.00988271
0.00990108
0.00992459
0.00992961
0.0099368
0.00994181
0.00995178
0.00995221
0.00995461
0.00995166
0.00995287
0.00994939
0.00994928
0.00994199
0.00993075
0.00992082
0.00989451
0.0098814
0.00981632
0.00980532
0.00966908
0.00949275
0.00949396
0.00503985
0.00288294
0.00947751
0.00953553
0.00971802
0.00977264
0.00983556
0.0098834
0.00990407
0.00992885
0.00993677
0.0099417
0.00993805
0.00994521
0.00995233
0.0099547
0.00995397
0.00994864
0.00994959
0.00994429
0.00993284
0.00992314
0.00991552
0.00989006
0.00987798
0.00981243
0.00980329
0.00966517
0.00949494
0.00949549
0.00503934
0.002883
0.00947479
0.00953616
0.00971399
0.00977044
0.00983249
0.00987845
0.00990002
0.00992345
0.00993401
0.00994218
0.00994314
0.00994866
0.00995223
0.00995415
0.00995374
0.00995219
0.00995097
0.00994723
0.00993811
0.00993195
0.00992051
0.00989544
0.00988033
0.00981228
0.00980251
0.00966076
0.00949654
0.00949709
0.00503896
0.00288308
0.00947121
0.00953476
0.0097064
0.00976617
0.00982654
0.0098786
0.00990342
0.00992764
0.00993994
0.00994259
0.00994234
0.00994746
0.00995072
0.00995474
0.00995377
0.00994828
0.00994892
0.00994476
0.00993536
0.00992676
0.00991465
0.00989112
0.0098763
0.00980834
0.00979894
0.00965518
0.00949893
0.00949853
0.00503858
0.00288319
0.00946647
0.00953466
0.0097005
0.00976217
0.00982278
0.00986797
0.00989475
0.00991691
0.00993586
0.00994261
0.00994603
0.00995166
0.0099505
0.0099514
0.00995149
0.00995256
0.00994836
0.00994869
0.00994251
0.00993806
0.0099226
0.00989876
0.00987851
0.00980548
0.00979608
0.00964698
0.00950012
0.0095
0.00503885
0.00288333
0.00945902
0.0095314
0.00968941
0.00975599
0.00981619
0.00987304
0.00990729
0.00992098
0.0099371
0.00994449
0.00994759
0.0099516
0.00995242
0.00995415
0.00995449
0.00995163
0.00995162
0.00994964
0.00994145
0.00993372
0.00991298
0.00989412
0.00987343
0.00980292
0.00979249
0.00964014
0.00950241
0.00950066
0.00504056
0.00288352
0.00944759
0.00952886
0.00967821
0.00974951
0.00981265
0.00985634
0.00990483
0.00992057
0.00993924
0.00994512
0.00994981
0.00995153
0.0099512
0.00995315
0.0099534
0.00995261
0.00995196
0.00995037
0.00994456
0.00993767
0.00991961
0.00990579
0.00987414
0.0097986
0.00978568
0.0096277
0.00950052
0.00950126
0.00504454
0.00288377
0.00942594
0.00952318
0.00966657
0.00974233
0.009812
0.00986866
0.00991206
0.00992331
0.00993964
0.00994607
0.00995056
0.00995232
0.00995319
0.00995343
0.00995311
0.00995132
0.00995161
0.0099513
0.0099438
0.00993914
0.00991688
0.00990816
0.00987291
0.00980175
0.00978324
0.00962022
0.00950032
0.00949624
0.00505033
0.00288416
0.00939409
0.0095109
0.00964321
0.00973092
0.00981892
0.00986936
0.00991844
0.00992379
0.00994367
0.00994604
0.00994959
0.00995138
0.00995262
0.00995295
0.0099537
0.00995347
0.00995219
0.00995149
0.00994534
0.00994202
0.00991621
0.00990908
0.0098668
0.00980245
0.00977087
0.0096062
0.00948654
0.00947898
0.00506162
0.0028847
0.00933171
0.00949698
0.00963569
0.00971279
0.00982685
0.00986347
0.00992111
0.00992372
0.00994513
0.00994559
0.00995224
0.00995261
0.00995343
0.00995379
0.00995307
0.00995343
0.0099522
0.00995229
0.00994602
0.0099454
0.00992192
0.00991737
0.00986253
0.00981319
0.0097539
0.00960072
0.00946923
0.0094343
0.0050789
0.00288565
0.00920064
0.00942377
0.00960037
0.00969408
0.00984639
0.00986521
0.00993028
0.00992719
0.00994884
0.00994769
0.00995273
0.00995235
0.0099538
0.00995377
0.00995388
0.00995371
0.00995283
0.00995259
0.00994658
0.00994816
0.00992319
0.00992489
0.0098617
0.00983177
0.00972374
0.00958458
0.00938955
0.00932314
0.00509944
0.00288716
0.00885873
0.00930835
0.0096286
0.00961788
0.00985672
0.00984157
0.00993313
0.00992324
0.0099491
0.00994658
0.00995332
0.00995283
0.00995391
0.00995398
0.00995361
0.00995411
0.00995252
0.00995371
0.00994696
0.00995027
0.0099223
0.00993114
0.00984498
0.00984982
0.00965579
0.00960403
0.00924254
0.00917039
0.00514696
0.00289508
0.00654011
0.00879046
0.00946858
0.009604
0.00987501
0.0098589
0.00993766
0.00992886
0.00994933
0.00994754
0.0099519
0.00995161
0.00995263
0.00995264
0.00995275
0.0099529
0.00995193
0.00995273
0.00994694
0.00995166
0.00992695
0.0099427
0.00985097
0.00989326
0.0095774
0.00964123
0.00872696
0.0069504
0.00514374
0.00292401
0.00528148
0.00784298
0.00779954
0.00938912
0.00909583
0.00978656
0.0095113
0.00976761
0.00964775
0.00973211
0.00968885
0.00972166
0.0097049
0.00972237
0.00971073
0.00973017
0.00970977
0.00974833
0.00969869
0.00978662
0.00966361
0.00982894
0.00951327
0.00982968
0.00900645
0.009623
0.00675283
0.00638988
0.00491632
0.000545083
0.00414611
0.00438606
0.00388131
0.00388232
0.00373137
0.00365171
0.00359719
0.00358834
0.00355208
0.00356702
0.00355155
0.00355917
0.0035526
0.00355717
0.0035531
0.00355934
0.00355352
0.00356694
0.00355319
0.00358492
0.00355218
0.00362644
0.00359221
0.00373208
0.00371355
0.00397567