/*--------------------------------*- C++ -*----------------------------------*\
  =========                 |
  \\      /  F ield         | OpenFOAM: The Open Source CFD Toolbox
   \\    /   O peration     | Website:  https://openfoam.org
    \\  /    A nd           | Version:  10
     \\/     M anipulation  |
\*---------------------------------------------------------------------------*/
FoamFile
{
    format      ascii;
    class       volScalarField;
    location    "0.1";
    object      omega_0;
}
// * * * * * * * * * * * * * * * * * * * * * * * * * * * * * * * * * * * * * //

dimensions      [0 0 -1 0 0 0 0];

internalField   nonuniform List<scalar> 
116800
(
37.8702
28.7353
29.2508
28.6273
28.8146
37.8703
28.7354
29.25
28.6273
28.8139
28.5726
37.8703
28.7356
29.2491
28.6273
28.8118
28.5726
28.6694
28.5587
37.8703
28.7357
29.2498
28.6276
28.8132
28.5728
28.6712
28.5589
28.6114
28.5572
28.5847
28.5592
28.5745
28.5613
28.5709
37.8704
28.7359
29.2496
28.6277
28.8118
28.5729
28.6688
28.5588
28.6093
28.5573
28.5834
28.5596
28.5736
28.5618
28.5705
28.5623
37.8704
28.736
29.2517
28.6282
28.8151
28.5732
28.6721
28.5592
28.6116
28.5574
28.5843
28.5595
28.5738
28.562
28.5704
28.5627
28.5713
37.8705
28.7361
29.2518
28.6285
28.8144
28.5734
28.6706
28.5593
28.6103
28.5576
28.5836
28.5599
28.5731
28.5624
28.5703
28.563
28.5717
28.5611
37.8705
28.7363
29.254
28.6291
28.8175
28.5738
28.6735
28.5598
28.6127
28.5577
28.5846
28.5598
28.5735
28.5628
28.5703
28.5639
28.5711
28.5621
28.5768
28.5582
28.5936
37.8706
28.7366
29.2543
28.6295
28.8171
28.5741
28.6727
28.56
28.6121
28.5579
28.5843
28.56
28.5735
28.563
28.5705
28.5641
28.5715
28.5621
28.5774
28.5585
28.5939
28.5555
28.6338
28.5564
28.718
28.5607
28.9416
28.5736
29.5714
27.5783
37.8707
28.7369
29.2558
28.63
28.8188
28.5745
28.674
28.5604
28.613
28.5583
28.5846
28.5605
28.5736
28.5637
28.5705
28.5651
28.5712
28.5632
28.5768
28.5591
28.5931
28.5557
28.6327
28.5566
28.717
28.5609
28.9406
28.5736
29.5704
27.5784
37.8708
28.7373
29.2558
28.6305
28.8182
28.5749
28.6732
28.5607
28.6125
28.5585
28.5845
28.5607
28.574
28.5638
28.5709
28.5653
28.5721
28.5629
28.578
28.5591
28.5939
28.5561
28.6333
28.5569
28.7169
28.5611
28.9401
28.5736
29.5694
27.5785
37.8709
28.7377
29.2564
28.6311
28.8184
28.5753
28.6732
28.561
28.6126
28.5589
28.5847
28.5611
28.5742
28.5646
28.5712
28.5661
28.5718
28.5641
28.5772
28.5599
28.5923
28.5564
28.6316
28.557
28.7153
28.5614
28.9384
28.5736
29.5679
27.5787
37.8711
28.7384
29.256
28.6316
28.8169
28.5757
28.6717
28.5612
28.6114
28.5592
28.5841
28.5616
28.5743
28.565
28.5717
28.5661
28.573
28.5638
28.5785
28.56
28.5931
28.5567
28.6319
28.5573
28.7146
28.5617
28.937
28.5736
29.5662
27.5789
37.8714
28.7392
29.2558
28.6323
28.8158
28.5762
28.6709
28.5615
28.6112
28.5595
28.5845
28.5618
28.5749
28.5657
28.5718
28.5672
28.5724
28.5656
28.5772
28.561
28.5914
28.5572
28.6295
28.5574
28.7122
28.5621
28.9344
28.5735
29.5639
27.579
37.8717
28.7402
29.2545
28.6329
28.8128
28.5767
28.6683
28.5618
28.6092
28.56
28.5838
28.5626
28.575
28.5662
28.5724
28.5672
28.5734
28.5652
28.5784
28.5611
28.5923
28.5577
28.6296
28.5579
28.711
28.5625
28.932
28.5735
29.5612
27.5793
37.8722
28.7415
29.2537
28.6338
28.8106
28.5773
28.6671
28.5622
28.6087
28.5604
28.5841
28.563
28.5755
28.5669
28.5727
28.5683
28.5731
28.5669
28.5775
28.5622
28.5906
28.5582
28.6269
28.5581
28.7078
28.5631
28.928
28.5735
29.5576
27.5796
37.8728
28.7431
29.2513
28.6347
28.8056
28.578
28.6631
28.5624
28.6056
28.5611
28.583
28.5643
28.5757
28.5675
28.5734
28.5683
28.5745
28.5664
28.5788
28.5623
28.5915
28.5588
28.6258
28.5587
28.7056
28.5638
28.9237
28.5735
29.5531
27.5801
37.8735
28.7453
29.2501
28.6359
28.8024
28.5788
28.6619
28.563
28.6047
28.5617
28.5831
28.5651
28.576
28.5685
28.5736
28.5694
28.574
28.5679
28.5781
28.5634
28.5899
28.5595
28.622
28.5591
28.7017
28.5647
28.9176
28.5735
29.5471
27.5807
37.8746
28.7481
29.2453
28.6372
28.7948
28.5796
28.657
28.5633
28.6014
28.5628
28.5822
28.5668
28.5759
28.5696
28.5741
28.5698
28.575
28.5681
28.579
28.564
28.5901
28.5603
28.6203
28.5599
28.6982
28.5657
28.9098
28.5734
29.539
27.5816
37.8761
28.752
29.2428
28.6391
28.7901
28.5806
28.6553
28.564
28.6004
28.5637
28.5824
28.5675
28.5765
28.5701
28.5745
28.5706
28.5748
28.5692
28.5786
28.5651
28.5889
28.5611
28.6173
28.5607
28.6936
28.5671
28.9
28.5734
29.5282
27.5828
37.8784
28.7571
29.2311
28.6407
28.7785
28.5812
28.6499
28.5646
28.5977
28.5652
28.5819
28.5698
28.5765
28.5718
28.5751
28.5718
28.5759
28.5702
28.5792
28.5664
28.5886
28.5622
28.6141
28.5615
28.6862
28.5689
28.8854
28.5734
29.5108
27.5844
37.8816
28.7639
29.2248
28.6418
28.7705
28.5821
28.6454
28.5656
28.5962
28.5664
28.5819
28.5703
28.5771
28.572
28.5756
28.5722
28.5759
28.571
28.579
28.5674
28.5876
28.5633
28.6109
28.5625
28.6767
28.571
28.868
28.5735
29.4877
27.5869
37.8881
28.7728
29.1893
28.642
28.7501
28.5813
28.6349
28.5671
28.5944
28.5696
28.5825
28.5736
28.5783
28.5749
28.577
28.5748
28.5776
28.5736
28.5802
28.5705
28.5875
28.5654
28.6071
28.5634
28.6638
28.5716
28.8385
28.5729
29.4425
27.5893
37.8994
28.7809
29.174
28.6447
28.7373
28.5802
28.6268
28.5685
28.5926
28.5707
28.5821
28.5739
28.5784
28.575
28.5773
28.5749
28.5776
28.5741
28.5799
28.5715
28.5864
28.5667
28.6036
28.5643
28.6518
28.5706
28.8081
28.5723
29.3832
27.5917
37.9319
28.7903
29.0551
28.6271
28.6843
28.5694
28.6034
28.5645
28.5812
28.5675
28.574
28.569
28.5712
28.5693
28.5703
28.5691
28.5705
28.5684
28.572
28.5669
28.5763
28.563
28.5877
28.5564
28.6209
28.5578
28.7291
28.5607
29.2326
27.5836
38.0159
28.7552
29.0009
28.5504
28.5873
28.4882
28.5166
28.4844
28.4985
28.4872
28.4926
28.4884
28.4903
28.4886
28.4895
28.4884
28.4897
28.4881
28.4911
28.487
28.4948
28.484
28.5041
28.4771
28.5296
28.4751
28.6068
28.4816
28.9996
27.5622
38.4529
28.2304
28.1962
27.4086
27.3459
27.2892
27.2753
27.2703
27.2665
27.2651
27.2636
27.263
27.2623
27.2619
27.2616
27.2614
27.2613
27.2613
27.2614
27.2617
27.2619
27.2625
27.2635
27.264
27.2741
27.2688
27.3163
27.3084
27.7924
27.4742
29.5245
13.3619
10.6599
11.2945
9.91389
29.5246
13.3643
10.667
11.2973
9.91894
10.0115
29.5248
13.3637
10.6684
11.2971
9.92158
10.0124
9.68147
9.6945
29.5248
13.3662
10.6687
11.299
9.92077
10.0115
9.67945
9.69402
9.60956
9.62145
9.59044
9.59894
9.58768
9.59435
9.58859
29.5249
13.3656
10.665
11.2982
9.91969
10.0151
9.68399
9.69613
9.61137
9.62128
9.59083
9.5982
9.58785
9.59398
9.58865
9.59367
29.5249
13.3678
10.66
11.2988
9.91484
10.0155
9.68063
9.69656
9.61085
9.62209
9.59073
9.59889
9.58792
9.59385
9.58894
9.59316
9.58871
29.525
13.3682
10.6555
11.2986
9.91261
10.018
9.68267
9.69902
9.61273
9.62298
9.59187
9.59897
9.5883
9.59366
9.58902
9.59336
9.58844
9.59574
29.525
13.3707
10.6495
11.2993
9.90757
10.0201
9.68061
9.69927
9.61151
9.62363
9.59135
9.60006
9.58839
9.59363
9.5894
9.59272
9.58922
9.59457
9.58904
9.61245
9.5997
29.5251
13.3722
10.6466
11.2998
9.9057
10.0212
9.68072
9.69989
9.61175
9.62395
9.59194
9.60001
9.58853
9.59375
9.58946
9.59295
9.58908
9.59517
9.58864
9.61287
9.59962
9.66548
9.63772
9.86612
9.76815
10.6286
10.3851
13.2539
12.4076
21.1049
29.5252
13.3751
10.6426
11.3009
9.90296
10.0232
9.68081
9.70078
9.61252
9.62512
9.59308
9.60019
9.58885
9.59362
9.58983
9.59259
9.58968
9.59429
9.58931
9.61226
9.60096
9.66529
9.63983
9.86627
9.77151
10.6287
10.3891
13.2537
12.4108
21.0977
29.5255
13.3777
10.6418
11.3019
9.90254
10.0232
9.68082
9.70024
9.612
9.62453
9.59268
9.59988
9.58875
9.59406
9.58994
9.59289
9.58938
9.59535
9.5886
9.6121
9.59953
9.66397
9.63813
9.86445
9.77009
10.6264
10.3884
13.2517
12.4123
21.0908
29.5257
13.3814
10.6411
11.3035
9.90213
10.0236
9.68092
9.69998
9.61178
9.62456
9.59306
9.60018
9.58929
9.5939
9.59017
9.59284
9.58999
9.5946
9.58912
9.61112
9.60065
9.66337
9.64015
9.86337
9.77395
10.6249
10.394
13.2496
12.4168
21.0791
29.5261
13.3854
10.6429
11.3053
9.90403
10.0221
9.68165
9.69905
9.61192
9.62375
9.59313
9.59994
9.58936
9.59417
9.59021
9.5935
9.58951
9.59561
9.58841
9.61068
9.59871
9.6614
9.63808
9.86049
9.77338
10.6217
10.3961
13.2466
12.4209
21.0666
29.5265
13.3906
10.6456
11.308
9.90604
10.0205
9.68092
9.6971
9.6098
9.62209
9.59177
9.60056
9.5901
9.5943
9.59069
9.59316
9.59057
9.59447
9.58974
9.61025
9.60049
9.66077
9.64017
9.85808
9.77769
10.6186
10.4039
13.2427
12.4279
21.0481
29.5271
13.3966
10.6507
11.3104
9.91046
10.017
9.68219
9.69561
9.61046
9.62069
9.59196
9.59953
9.58973
9.59454
9.5907
9.59384
9.59029
9.59549
9.58896
9.60964
9.59782
9.65814
9.63738
9.8537
9.77765
10.614
10.4094
13.2377
12.436
21.0267
29.5279
13.4044
10.6571
11.3142
9.91485
10.0142
9.68185
9.693
9.60868
9.61893
9.59124
9.59969
9.59018
9.59466
9.5912
9.59362
9.59114
9.59475
9.5899
9.60878
9.59881
9.65663
9.63839
9.84931
9.78162
10.6089
10.4198
13.2314
12.4475
20.9971
29.5289
13.4141
10.6666
11.3168
9.92177
10.0081
9.68323
9.69039
9.60958
9.61706
9.59173
9.5983
9.59013
9.59505
9.59118
9.59447
9.59057
9.59593
9.58905
9.60745
9.59563
9.65247
9.63432
9.84198
9.78143
10.6012
10.4303
13.2224
12.4633
20.9592
29.5301
13.4267
10.6766
11.3212
9.92738
10.003
9.6824
9.68562
9.60819
9.6156
9.5917
9.59813
9.59069
9.59487
9.59171
9.59423
9.59158
9.59549
9.58987
9.60678
9.59622
9.65064
9.63393
9.83527
9.78368
10.5928
10.4433
13.2123
12.4837
20.9095
29.5319
13.4441
10.6943
11.3231
9.93587
9.99179
9.68203
9.67946
9.60788
9.61281
9.59198
9.59734
9.59112
9.59486
9.59186
9.59466
9.59139
9.59604
9.58971
9.60541
9.59418
9.64621
9.62889
9.82457
9.78239
10.5769
10.4573
13.1958
12.5177
20.8387
29.5342
13.4683
10.7099
11.3256
9.94114
9.98127
9.68009
9.674
9.60705
9.61141
9.59202
9.59739
9.59141
9.59504
9.59224
9.59473
9.59217
9.59598
9.59043
9.60491
9.5938
9.64393
9.62632
9.81555
9.78041
10.5611
10.4684
13.1817
12.5614
20.7487
29.5379
13.506
10.7459
11.3128
9.94776
9.9538
9.67541
9.6635
9.60609
9.60782
9.59238
9.59655
9.59204
9.59465
9.59259
9.59462
9.59216
9.59602
9.59062
9.60347
9.59231
9.63866
9.62123
9.79721
9.77165
10.5256
10.4798
13.1477
12.6481
20.6044
29.543
13.5722
10.7775
11.3061
9.96058
9.9302
9.67574
9.65721
9.60638
9.60649
9.59292
9.59693
9.59245
9.59529
9.59302
9.59522
9.59284
9.59634
9.59141
9.60304
9.59172
9.63591
9.61722
9.78358
9.76111
10.5036
10.4823
13.1313
12.7587
20.4301
29.5519
13.7329
10.8754
11.2181
9.95786
9.86601
9.66659
9.64087
9.60417
9.60191
9.5927
9.59596
9.59288
9.5947
9.59333
9.59473
9.59305
9.59585
9.59183
9.60111
9.59059
9.62817
9.60941
9.75088
9.73258
10.4157
10.457
13.0591
13.03
20.1292
29.5607
14.175
11.0497
11.1505
10.0201
9.83833
9.68008
9.63751
9.60747
9.60266
9.59466
9.5975
9.59451
9.59644
9.59491
9.59648
9.59472
9.59735
9.59364
9.60189
9.59158
9.62813
9.60771
9.74508
9.72199
10.3899
10.4184
13.1108
13.3023
19.8597
29.5669
16.2156
11.6266
10.7908
9.96585
9.73552
9.65867
9.61912
9.60536
9.6019
9.59615
9.59867
9.59664
9.59775
9.59681
9.59764
9.5966
9.59824
9.59595
9.60062
9.59419
9.61764
9.6011
9.69556
9.67032
10.1663
10.242
12.9207
14.1589
19.5072
29.6076
26.6446
14.1341
12.627
10.27
10.3862
9.82998
9.99671
9.8292
9.89985
9.8424
9.86838
9.84563
9.85499
9.84306
9.84918
9.83628
9.84828
9.82237
9.85516
9.79343
9.88279
9.74338
9.9873
9.74706
10.5718
10.2761
14.7079
12.5519
22.6996
29.2259
60.6062
62.2958
43.0796
29.4546
30.3794
28.5964
28.7034
28.5923
28.6599
28.6388
28.6849
28.6723
28.6969
28.6841
28.698
28.672
28.6883
28.6287
28.6666
28.5394
28.6265
28.3854
28.5377
28.1643
29.2622
27.9679
37.9371
53.4989
75.5315
29.7366
11.5302
10.9495
10.0879
29.7368
11.5338
10.9607
10.093
9.80022
9.71084
29.7368
11.5343
10.957
10.0976
9.79821
9.71546
9.61053
9.58846
29.7369
11.5369
10.9615
10.0948
9.79976
9.71251
9.6097
9.59433
9.56037
9.54861
9.54077
9.53699
9.53562
9.53542
9.53482
29.7368
11.5363
10.9525
10.0967
9.79204
9.71309
9.6086
9.58543
9.55571
9.54665
9.54028
9.53709
9.53584
9.53467
9.53414
9.53454
29.7368
11.5386
10.9504
10.089
9.78627
9.70667
9.60687
9.59461
9.56108
9.54965
9.54102
9.5369
9.53545
9.53465
9.53418
9.53434
9.53481
29.7368
11.5391
10.9434
10.0905
9.7815
9.70607
9.6041
9.58669
9.55567
9.54751
9.5407
9.53773
9.53855
9.53444
9.53406
9.53425
9.53404
9.53649
29.7368
11.5415
10.939
10.0843
9.77491
9.70091
9.60214
9.59062
9.55926
9.55156
9.542
9.53645
9.53644
9.53491
9.53371
9.53464
9.53439
9.54117
9.54052
9.54663
9.55142
29.7368
11.5436
10.9346
10.0858
9.77234
9.70088
9.60018
9.58731
9.55533
9.54999
9.541
9.53661
9.53673
9.53424
9.53381
9.53425
9.53415
9.539
9.53906
9.54556
9.55014
9.5673
9.58264
9.62076
9.68188
9.81801
10.0998
11.2323
11.2404
19.1911
29.7369
11.5468
10.9307
10.0834
9.76827
9.6991
9.5995
9.58908
9.55781
9.55159
9.54196
9.537
9.53821
9.53432
9.53354
9.53399
9.5348
9.54073
9.54025
9.54664
9.55215
9.56797
9.58398
9.62138
9.6833
9.81742
10.1017
11.2305
11.2413
19.19
29.737
11.5507
10.9279
10.0855
9.76735
9.69996
9.59909
9.58821
9.55663
9.55082
9.5416
9.53678
9.53583
9.53428
9.53417
9.53458
9.53476
9.53786
9.53868
9.54524
9.5502
9.56578
9.58197
9.61975
9.68176
9.81418
10.1013
11.227
11.2425
19.1901
29.7371
11.5555
10.9256
10.0863
9.76612
9.69988
9.59888
9.58901
9.55732
9.5514
9.54168
9.5368
9.53649
9.53394
9.53458
9.53385
9.53452
9.53885
9.539
9.54567
9.55141
9.56674
9.58414
9.62174
9.68444
9.81432
10.1042
11.224
11.2436
19.1876
29.7373
11.5613
10.9236
10.09
9.76653
9.70119
9.59892
9.58837
9.55694
9.55027
9.54179
9.53726
9.53758
9.53421
9.53408
9.53473
9.53399
9.53726
9.53899
9.54508
9.55091
9.56543
9.58269
9.62019
9.6838
9.81187
10.1056
11.2205
11.2455
19.1855
29.7376
11.5689
10.9232
10.0935
9.76798
9.70179
9.59911
9.58914
9.55725
9.55072
9.54213
9.53652
9.53668
9.53483
9.53413
9.53416
9.53444
9.54017
9.53986
9.54533
9.55136
9.56659
9.58492
9.62305
9.68742
9.81317
10.1101
11.2164
11.2475
19.1808
29.7379
11.5776
10.9222
10.0999
9.76983
9.70477
9.59951
9.58808
9.55629
9.54898
9.54084
9.53627
9.53666
9.53447
9.5345
9.53384
9.53438
9.53837
9.53886
9.54572
9.55087
9.56578
9.58337
9.62082
9.6871
9.81178
10.1136
11.212
11.2507
19.1752
29.7383
11.5894
10.9243
10.1052
9.77311
9.7047
9.60045
9.58948
9.55735
9.55026
9.5422
9.53598
9.53765
9.53488
9.53457
9.53426
9.53509
9.53982
9.53888
9.54482
9.54895
9.56596
9.58462
9.62371
9.69126
9.81468
10.1202
11.2058
11.2546
19.1667
29.7389
11.6038
10.9258
10.1163
9.77729
9.71074
9.60172
9.58679
9.5558
9.54719
9.54035
9.53609
9.53652
9.5351
9.5357
9.53445
9.53485
9.53682
9.53742
9.54548
9.54925
9.56559
9.58332
9.62098
9.69066
9.81425
10.1261
11.199
11.2605
19.1546
29.7396
11.6238
10.9294
10.1224
9.78076
9.7069
9.60249
9.59015
9.55875
9.54758
9.54104
9.5361
9.53639
9.53499
9.5354
9.53476
9.53497
9.53696
9.53718
9.54343
9.54714
9.56589
9.58407
9.62398
9.69458
9.81799
10.1346
11.1884
11.2688
19.1393
29.7408
11.6523
10.9369
10.1392
9.789
9.71426
9.60467
9.58311
9.5562
9.54564
9.54068
9.53625
9.53645
9.53492
9.53546
9.53478
9.53525
9.53672
9.53634
9.54361
9.54596
9.56561
9.58271
9.62169
9.69265
9.81896
10.1447
11.1802
11.2814
19.1144
29.7421
11.692
10.9413
10.145
9.79033
9.70291
9.60459
9.58486
9.55792
9.5453
9.54069
9.53636
9.53647
9.53537
9.53542
9.53522
9.53508
9.53665
9.53637
9.54297
9.54494
9.5657
9.5816
9.62381
9.69264
9.8222
10.1534
11.1668
11.3018
19.0833
29.7452
11.7616
10.9649
10.161
9.80314
9.70231
9.60673
9.57883
9.55725
9.54385
9.54122
9.53649
9.53638
9.53525
9.53523
9.53463
9.53561
9.53667
9.53585
9.54199
9.54217
9.56257
9.5761
9.62327
9.68676
9.82455
10.1662
11.1594
11.3416
19.032
29.7484
11.8663
10.9817
10.1623
9.81329
9.69021
9.61158
9.5735
9.55682
9.54238
9.54064
9.53627
9.53644
9.53514
9.53534
9.53499
9.53487
9.5363
9.53574
9.54237
9.54134
9.56297
9.5698
9.62686
9.67904
9.8367
10.168
11.1542
11.4072
18.9639
29.7594
12.1118
11.0644
10.1586
9.8314
9.66857
9.61166
9.56338
9.55608
9.54037
9.54044
9.53579
9.53589
9.53489
9.53495
9.53465
9.53499
9.53622
9.53532
9.54085
9.53898
9.55933
9.56069
9.62279
9.65807
9.8441
10.166
11.188
11.6001
18.8797
29.7712
12.6285
11.2067
10.1042
9.9001
9.64824
9.63025
9.55781
9.55824
9.5388
9.54033
9.53542
9.53599
9.53474
9.53494
9.53476
9.53469
9.53584
9.53507
9.5411
9.53833
9.5611
9.5554
9.63586
9.64127
9.89972
10.12
11.3016
11.8267
18.8236
29.8145
14.8702
11.7621
10.1108
9.90939
9.61251
9.61918
9.55076
9.55567
9.53948
9.54054
9.53657
9.53672
9.53578
9.53589
9.53577
9.53572
9.53672
9.53592
9.54017
9.53717
9.55707
9.54531
9.62466
9.59585
9.9338
9.9975
11.7225
12.863
18.9797
29.9068
25.1753
13.6573
12.102
10.1628
10.2481
9.75716
9.90665
9.7543
9.82528
9.76856
9.79538
9.77193
9.7822
9.76898
9.7761
9.76151
9.7744
9.74723
9.7795
9.71796
9.8022
9.67345
9.89574
9.66786
10.3907
9.90852
14.1444
11.5101
22.2926
29.4051
62.8978
66.136
44.6054
30.5988
31.3357
29.4972
29.5568
29.4674
29.5209
29.5055
29.5509
29.5361
29.5628
29.5463
29.5632
29.5332
29.553
29.4904
29.5307
29.4025
29.4851
29.2517
29.3747
29.0394
30.0668
28.8699
39.3569
57.6666
79.7908
29.7151
10.1887
10.1031
9.83691
9.80727
9.69041
29.7153
10.1894
10.1025
9.83687
9.81099
9.70291
9.64326
9.59654
29.7153
10.1895
10.102
9.83887
9.80565
9.69167
9.62356
9.57971
9.57066
9.55254
9.5396
9.535
9.53031
9.52975
9.52797
29.7154
10.1914
10.0979
9.8344
9.80212
9.71328
9.66506
9.60112
9.57583
9.55336
9.53907
9.53459
9.52794
9.52834
9.52806
9.52942
29.7153
10.1932
10.0924
9.82888
9.78522
9.68654
9.62446
9.5843
9.57184
9.55296
9.53991
9.53652
9.53319
9.52999
9.5278
9.52818
9.53004
29.7153
10.1951
10.0893
9.82597
9.78218
9.69345
9.64038
9.60564
9.57865
9.55564
9.54327
9.54329
9.52905
9.53066
9.52807
9.53214
9.53009
9.53473
29.7153
10.1977
10.0839
9.82101
9.76962
9.67903
9.62104
9.58946
9.56273
9.55028
9.54252
9.54772
9.53625
9.52986
9.527
9.52862
9.53711
9.5351
9.54328
9.54998
9.55747
29.7154
10.1997
10.0815
9.8204
9.76704
9.68027
9.62296
9.59565
9.56346
9.55035
9.54357
9.54487
9.53481
9.52968
9.52674
9.52777
9.53081
9.53093
9.5394
9.55222
9.56243
9.57555
9.60233
9.61801
9.69975
9.71733
9.88864
10.1401
10.1718
18.5156
29.7155
10.2025
10.0774
9.81815
9.76023
9.67411
9.61723
9.592
9.56354
9.55598
9.54856
9.54319
9.53069
9.53116
9.52736
9.52739
9.53423
9.53138
9.54153
9.55475
9.56441
9.57628
9.60673
9.62234
9.70512
9.71939
9.89251
10.1383
10.1711
18.5164
29.7157
10.2046
10.0755
9.81968
9.75911
9.67478
9.61715
9.5934
9.56282
9.55504
9.54629
9.53777
9.53218
9.5316
9.53025
9.52933
9.52982
9.53375
9.53617
9.54531
9.55955
9.57123
9.60264
9.61786
9.70053
9.71535
9.89109
10.1361
10.1712
18.5176
29.7159
10.2073
10.0732
9.82123
9.75716
9.6735
9.61518
9.59182
9.56185
9.55555
9.54801
9.53991
9.53477
9.53069
9.52761
9.52782
9.53281
9.5318
9.5359
9.54825
9.56309
9.57442
9.60742
9.62203
9.70559
9.71725
9.89533
10.1335
10.1702
18.518
29.7163
10.2099
10.0718
9.82486
9.75805
9.6758
9.61747
9.59438
9.56452
9.55828
9.54952
9.54382
9.53051
9.53006
9.52743
9.53078
9.52912
9.5334
9.53345
9.54244
9.55664
9.56891
9.60269
9.61874
9.70388
9.71568
9.8975
10.1315
10.1699
18.5186
29.7168
10.2128
10.0713
9.83054
9.75985
9.67838
9.61635
9.59032
9.55891
9.54903
9.54304
9.54784
9.53943
9.52986
9.52749
9.52801
9.5345
9.53319
9.53985
9.55428
9.5666
9.57599
9.60867
9.62339
9.70923
9.71856
9.9032
10.1284
10.1685
18.5183
29.7174
10.2163
10.0705
9.83626
9.76296
9.68263
9.62306
9.59583
9.56607
9.55272
9.54251
9.54136
9.53446
9.52997
9.52786
9.52815
9.53023
9.53146
9.53607
9.54755
9.55508
9.56928
9.60139
9.62001
9.70925
9.71946
9.9095
10.126
10.168
18.5179
29.7182
10.2208
10.0727
9.84682
9.76852
9.69022
9.62247
9.59107
9.56045
9.54503
9.54195
9.54238
9.5362
9.53202
9.52762
9.52812
9.53509
9.53409
9.53929
9.55121
9.56202
9.57719
9.60734
9.62559
9.71467
9.72436
9.91765
10.1227
10.1674
18.5161
29.7193
10.2268
10.0732
9.85534
9.77424
9.69556
9.63693
9.60274
9.57459
9.55047
9.54205
9.53773
9.53064
9.5321
9.53097
9.53083
9.52956
9.53479
9.53439
9.54198
9.54738
9.56668
9.59712
9.62237
9.71827
9.72803
9.92945
10.1212
10.1674
18.5121
29.7207
10.237
10.0783
9.87083
9.78229
9.70386
9.62969
9.58606
9.56908
9.54874
9.53957
9.53568
9.53085
9.52998
9.52791
9.52758
9.53071
9.53063
9.53313
9.54348
9.55323
9.57943
9.60349
9.62939
9.72187
9.73296
9.93956
10.1182
10.1696
18.5022
29.7226
10.2522
10.0825
9.88688
9.79159
9.70901
9.65229
9.58975
9.56991
9.54622
9.53889
9.53291
9.53081
9.53116
9.52871
9.5287
9.52941
9.5302
9.53227
9.53946
9.54809
9.57081
9.58821
9.62831
9.72757
9.74221
9.95771
10.1218
10.1726
18.4832
29.7252
10.2829
10.0913
9.90325
9.8012
9.70952
9.63557
9.58005
9.5662
9.54557
9.5376
9.53194
9.52991
9.52865
9.52831
9.5287
9.53132
9.53063
9.53104
9.5405
9.54631
9.57445
9.58531
9.62999
9.72342
9.74553
9.96871
10.1227
10.1871
18.4581
29.7291
10.3314
10.1108
9.9371
9.81754
9.70072
9.63518
9.57218
9.56583
9.54055
9.53768
9.53324
9.53101
9.52931
9.52891
9.52793
9.52826
9.53022
9.53087
9.53862
9.5427
9.57554
9.58433
9.63842
9.72287
9.76314
9.98964
10.1453
10.2204
18.4107
29.7346
10.4316
10.1324
9.94778
9.84278
9.69004
9.64282
9.56864
9.56589
9.53859
9.53832
9.52979
9.52932
9.52832
9.52783
9.52871
9.52828
9.52983
9.5298
9.53766
9.53837
9.56811
9.57363
9.64392
9.70856
9.78639
9.99821
10.1731
10.3009
18.3489
29.7442
10.6771
10.2497
10.0003
9.87066
9.66517
9.64128
9.55729
9.56166
9.53404
9.53561
9.5292
9.52969
9.52785
9.52795
9.52771
9.52796
9.52916
9.52943
9.53705
9.53495
9.56688
9.56435
9.646
9.68475
9.8301
10.0234
10.3023
10.5048
18.2741
29.7533
11.2939
10.436
9.95952
9.97945
9.65153
9.67279
9.55359
9.56689
9.53366
9.53716
9.5284
9.52905
9.52764
9.52756
9.52799
9.52741
9.52939
9.52793
9.53653
9.53222
9.56799
9.55635
9.66822
9.66114
9.92616
9.99681
10.5431
10.7902
18.155
29.8086
14.2004
11.3026
10.1809
10.0039
9.62527
9.65113
9.54681
9.55972
9.5327
9.53561
9.52973
9.53029
9.52892
9.52896
9.52884
9.52868
9.53003
9.52895
9.53639
9.53038
9.56205
9.54194
9.66115
9.60603
10.0424
9.95019
11.4129
12.0185
18.2408
29.8961
26.237
13.3677
13.0661
10.4144
10.5735
9.75065
10.0122
9.72995
9.85044
9.75911
9.8037
9.76832
9.78587
9.76705
9.77958
9.75856
9.7811
9.73923
9.79549
9.69949
9.84445
9.66105
10.0573
9.68696
10.8951
9.99014
14.5582
11.2105
20.6048
29.3961
64.3762
64.0015
47.1145
30.5633
33.438
29.4905
30.4077
29.412
29.5694
29.4522
29.5184
29.4819
29.5196
29.4914
29.5191
29.476
29.5179
29.4251
29.5182
29.3179
29.5552
29.1417
30.3454
28.9365
32.8128
29.0053
42.6216
55.4803
80.7765
29.7135
10.0751
10.0268
9.83647
9.80228
9.7284
9.66646
9.6054
29.7138
10.0766
10.0319
9.83582
9.81189
9.71815
9.66764
9.62678
29.7133
10.0759
10.0202
9.82866
9.77089
9.69281
9.65184
9.58925
29.7134
10.0782
10.0176
9.82132
9.75637
9.67526
9.64788
9.62727
29.713
10.0779
10.0115
9.81829
9.74377
9.66189
9.61955
9.58232
29.7129
10.08
10.0079
9.81301
9.72964
9.65061
9.61728
9.59576
9.57523
9.56532
9.5423
9.55056
9.55113
9.54048
9.52926
9.53556
9.53289
29.7128
10.0803
10.0045
9.81274
9.72546
9.64592
9.60472
9.57837
9.5525
9.55552
9.54199
9.55177
9.5524
9.53509
9.52837
9.52838
9.53028
9.55594
9.56211
9.54575
9.55168
9.56017
9.58095
9.59613
9.64792
9.7111
9.81037
10.0728
10.0912
18.3804
29.7128
10.0819
10.0014
9.8108
9.71734
9.64037
9.59991
9.58119
9.55561
9.55356
9.53537
9.54886
9.58274
9.53362
9.52901
9.52994
9.5388
9.57131
9.57114
9.55116
9.56141
9.56506
9.58417
9.59743
9.64906
9.71146
9.81158
10.071
10.0908
18.3803
29.7128
10.0828
9.99922
9.81265
9.71646
9.64066
9.59826
9.5785
9.55326
9.55061
9.53729
9.5333
9.53771
9.55284
9.53798
9.5461
9.54261
9.53314
9.53921
9.54514
9.5503
9.55694
9.57819
9.59312
9.64609
9.70824
9.8121
10.0695
10.0912
18.3805
29.7129
10.0843
9.9974
9.8142
9.71394
9.64034
9.59734
9.58111
9.55447
9.55261
9.53505
9.53657
9.53558
9.53259
9.53796
9.52887
9.52907
9.55006
9.54375
9.54694
9.55489
9.55984
9.58297
9.59576
9.6492
9.7086
9.81463
10.0668
10.0908
18.3797
29.7132
10.0856
9.99547
9.8173
9.71402
9.64211
9.59718
9.57846
9.55381
9.54761
9.54169
9.55581
9.57319
9.53204
9.52947
9.53415
9.54747
9.54044
9.54679
9.54639
9.55593
9.55906
9.58123
9.59419
9.64824
9.70742
9.81722
10.0656
10.091
18.3787
29.7135
10.0875
9.99515
9.82263
9.71686
9.64697
9.60323
9.58712
9.55993
9.55622
9.54746
9.55551
9.55212
9.53968
9.52785
9.53366
9.53144
9.58487
9.57183
9.54737
9.55648
9.56096
9.5854
9.59825
9.65318
9.70851
9.8218
10.0623
10.0906
18.3766
29.714
10.0895
9.99321
9.82773
9.71813
9.65234
9.60301
9.58314
9.5572
9.55084
9.54078
9.54687
9.54284
9.53519
9.5295
9.52788
9.53124
9.54627
9.55655
9.54626
9.55652
9.5629
9.58389
9.59783
9.65291
9.70852
9.82606
10.0609
10.091
18.3732
29.7146
10.0928
9.99455
9.83547
9.72407
9.65709
9.61598
9.59679
9.56947
9.56122
9.54605
9.55461
9.55606
9.53511
9.52838
9.52728
9.53422
9.58328
9.56576
9.54548
9.54697
9.56302
9.58725
9.60429
9.66183
9.71154
9.83325
10.0565
10.0913
18.369
29.7154
10.0968
9.99305
9.84501
9.72974
9.67251
9.61398
9.58521
9.56526
9.55197
9.53313
9.53218
9.5431
9.55695
9.54797
9.53363
9.5545
9.53487
9.5402
9.55059
9.55694
9.57152
9.59008
9.60703
9.66126
9.71423
9.83961
10.0552
10.0926
18.3604
29.7164
10.1044
9.99572
9.85489
9.73536
9.66654
9.6339
9.61441
9.5771
9.54655
9.53353
9.5293
9.52905
9.52912
9.53192
9.534
9.52903
9.5335
9.53526
9.53845
9.55322
9.57687
9.59296
9.61487
9.67381
9.71878
9.84955
10.0506
10.0946
18.3507
29.7183
10.1151
9.99892
9.87479
9.75587
9.70223
9.63982
9.58313
9.56148
9.54442
9.53493
9.52907
9.53348
9.52816
9.53791
9.52847
9.53104
9.52943
9.5306
9.54025
9.54845
9.57875
9.60709
9.62849
9.66904
9.72504
9.8587
10.0514
10.0977
18.3263
29.7202
10.1326
10.0009
9.88534
9.75077
9.6643
9.6525
9.60513
9.57102
9.54219
9.53549
9.53198
9.5299
9.52987
9.52939
9.53405
9.52957
9.53228
9.53037
9.53727
9.54581
9.57713
9.60773
9.63535
9.67189
9.73114
9.86791
10.0487
10.1054
18.3006
29.7247
10.1643
10.0199
9.92222
9.80428
9.69606
9.64995
9.58654
9.56453
9.53937
9.53705
9.52963
9.53082
9.52749
9.53045
9.52811
9.53453
9.53064
9.53226
9.53643
9.54202
9.57233
9.598
9.64536
9.66143
9.74166
9.8914
10.0636
10.1191
18.2528
29.73
10.2613
10.0308
9.92607
9.81602
9.68049
9.65567
9.57501
9.55946
9.53651
9.53633
9.53291
9.52994
9.52721
9.52757
9.52729
9.52732
9.52966
9.52805
9.53772
9.53758
9.57043
9.58037
9.65595
9.65315
9.76272
9.89838
10.0837
10.1665
18.1911
29.7424
10.5323
10.1445
9.98439
9.87021
9.6594
9.64597
9.55859
9.55895
9.5353
9.53388
9.5275
9.52752
9.52662
9.52655
9.52659
9.52695
9.52829
9.52732
9.53419
9.53418
9.56315
9.56589
9.65334
9.63268
9.8068
9.93556
10.2188
10.3819
18.1195
29.7551
11.1639
10.3191
9.9278
9.95554
9.62099
9.68076
9.55175
9.56009
9.52958
9.53438
9.52716
9.52793
9.52603
9.52628
9.52601
9.52577
9.52667
9.52645
9.53614
9.53532
9.56817
9.55453
9.68794
9.62418
9.90262
9.90706
10.4412
10.679
18.0013
29.812
14.1501
11.2092
10.1767
9.99625
9.61361
9.65602
9.54214
9.55709
9.5305
9.53412
9.52785
9.52817
9.52731
9.52713
9.52731
9.52704
9.52837
9.52721
9.5332
9.52813
9.56222
9.53739
9.67226
9.5841
10.0489
9.89442
11.3753
11.9398
18.0543
29.9035
26.2746
13.3284
13.1
10.4241
10.5554
9.74864
9.98376
9.71057
9.829
9.74069
9.78575
9.75106
9.76958
9.74975
9.76426
9.74135
9.76557
9.72388
9.7778
9.68901
9.82471
9.65428
10.0438
9.68046
10.9128
9.96873
14.5165
11.1658
20.2918
29.3985
64.7755
64.0746
47.1079
30.5861
33.3376
29.4526
30.2031
29.3378
29.4228
29.374
29.4348
29.4046
29.4433
29.4149
29.4447
29.4012
29.4415
29.3553
29.4363
29.2533
29.4289
29.0746
30.1664
28.889
32.9099
29.0379
43.0198
55.6943
81.0068
29.7065
10.052
9.85014
9.76525
9.78063
29.7066
10.0535
9.84063
9.73746
9.73555
29.7062
10.0563
9.84178
9.73867
9.70491
29.7061
10.0576
9.83616
9.72658
9.6872
9.66839
9.66035
9.67131
29.7058
10.0613
9.83734
9.72779
9.67683
9.63263
9.60059
9.5732
29.7058
10.0626
9.834
9.72424
9.66893
9.63218
9.60942
9.59902
9.56178
9.68043
9.60079
9.63678
9.59231
9.57709
9.5835
9.58326
9.6245
9.65211
9.72704
9.86328
10.0583
18.3467
29.7058
10.0661
9.83373
9.72329
9.66124
9.61564
9.5879
9.56968
9.55753
9.76654
9.64466
9.66833
9.59373
9.57197
9.58979
9.59115
9.63242
9.65546
9.7295
9.86111
10.0581
18.3464
29.706
10.0682
9.83181
9.72403
9.65845
9.61709
9.58907
9.57493
9.55459
9.55883
9.59277
9.55942
9.60397
9.56555
9.55392
9.57265
9.56735
9.58633
9.58619
9.62676
9.65201
9.72966
9.86075
10.0592
18.3463
29.7062
10.0715
9.83102
9.7251
9.6561
9.6133
9.5841
9.56792
9.55248
9.56279
9.61357
9.57007
9.57008
9.54176
9.56309
9.58047
9.56976
9.5915
9.58962
9.63014
9.65242
9.73121
9.85767
10.0593
18.3449
29.7066
10.0747
9.82938
9.72754
9.65537
9.61618
9.58853
9.57391
9.55903
9.57465
9.60968
9.71219
9.6804
9.57442
9.5464
9.56591
9.56169
9.58681
9.5869
9.63044
9.65216
9.73453
9.85727
10.0603
18.3439
29.7071
10.0785
9.82904
9.73308
9.65914
9.6223
9.58928
9.56894
9.55391
9.55634
9.66594
9.77512
9.80339
9.63444
9.64126
9.61301
9.57358
9.59122
9.58942
9.63115
9.65144
9.73558
9.8535
10.0607
18.3403
29.7079
10.0835
9.82639
9.73531
9.65824
9.62618
9.60581
9.58836
9.58057
9.57578
9.60788
9.65784
9.66585
9.57771
9.61352
9.56686
9.56065
9.58191
9.58747
9.63755
9.65407
9.74304
9.85332
10.0618
18.3373
29.7088
10.0886
9.82815
9.74958
9.67328
9.6499
9.60636
9.58045
9.573
9.59412
9.70178
9.7544
9.79691
9.6428
9.58905
9.5995
9.59228
9.59821
9.60091
9.63871
9.65493
9.74441
9.84927
10.0628
18.3296
29.7101
10.0963
9.82265
9.74769
9.66599
9.64766
9.65412
9.66726
9.66878
9.57121
9.58702
9.61089
9.59535
9.68342
9.70264
9.59347
9.56519
9.55919
9.56703
9.58386
9.59676
9.65973
9.6647
9.75964
9.85042
10.0644
18.322
29.7116
10.1052
9.83055
9.7769
9.7027
9.69672
9.63135
9.57379
9.66255
9.59382
9.55512
9.53841
9.54054
9.57879
9.54466
9.53722
9.6022
9.54173
9.53304
9.5579
9.59069
9.66584
9.62455
9.6217
9.65247
9.66264
9.7624
9.84621
10.0673
18.3084
29.7138
10.1179
9.82327
9.7785
9.68485
9.71565
9.81525
9.6069
9.60552
9.55609
9.54427
9.53062
9.53749
9.56595
9.53287
9.56362
9.54127
9.53646
9.53461
9.55
9.5914
9.62059
9.57594
9.61615
9.6972
9.69118
9.78546
9.85229
10.0708
18.2882
29.7165
10.1359
9.83995
9.81014
9.74937
9.73761
9.63577
9.56617
9.61644
9.5762
9.54677
9.53629
9.55827
9.53533
9.53427
9.5346
9.60133
9.53865
9.53016
9.55191
9.58011
9.63975
9.57311
9.60415
9.68713
9.68171
9.80037
9.85107
10.0792
18.2642
29.7209
10.161
9.85025
9.86006
9.77182
9.71244
9.62134
9.56257
9.61158
9.54622
9.54615
9.57734
9.54465
9.53509
9.53147
9.52784
9.53745
9.58239
9.53562
9.5431
9.56224
9.67902
9.60658
9.64049
9.71156
9.72294
9.81871
9.87386
10.0915
18.2139
29.7266
10.2121
9.86975
9.86228
9.80802
9.68371
9.63883
9.56406
9.58718
9.53971
9.54628
9.53008
9.53111
9.53092
9.52885
9.53077
9.52979
9.53025