/*--------------------------------*- C++ -*----------------------------------*\
  =========                 |
  \\      /  F ield         | OpenFOAM: The Open Source CFD Toolbox
   \\    /   O peration     | Website:  https://openfoam.org
    \\  /    A nd           | Version:  10
     \\/     M anipulation  |
\*---------------------------------------------------------------------------*/
FoamFile
{
    format      ascii;
    class       volScalarField;
    location    "0.1";
    object      omega;
}
// * * * * * * * * * * * * * * * * * * * * * * * * * * * * * * * * * * * * * //

dimensions      [0 0 -1 0 0 0 0];

internalField   nonuniform List<scalar> 
116800
(
37.8339
28.7157
29.2402
28.6068
28.7977
37.8339
28.7159
29.2394
28.6068
28.7969
28.5513
37.834
28.716
29.2384
28.6068
28.7948
28.5513
28.65
28.5371
37.834
28.7162
29.2392
28.607
28.7963
28.5515
28.6519
28.5373
28.5908
28.5354
28.5635
28.5374
28.5531
28.5395
28.5494
37.834
28.7163
29.2389
28.6072
28.7949
28.5516
28.6493
28.5372
28.5886
28.5356
28.5622
28.5378
28.5521
28.54
28.549
28.5405
37.834
28.7164
29.2411
28.6077
28.7982
28.5519
28.6528
28.5377
28.591
28.5357
28.5631
28.5378
28.5524
28.5402
28.5489
28.541
28.5498
37.8341
28.7166
29.2412
28.608
28.7974
28.5521
28.6512
28.5378
28.5897
28.5359
28.5623
28.5381
28.5517
28.5406
28.5488
28.5413
28.5502
28.5393
37.8341
28.7168
29.2435
28.6086
28.8006
28.5525
28.6542
28.5382
28.5921
28.536
28.5634
28.5381
28.5521
28.541
28.5487
28.5421
28.5496
28.5403
28.5555
28.5365
28.5726
37.8342
28.717
29.2437
28.609
28.8002
28.5528
28.6533
28.5384
28.5915
28.5362
28.5631
28.5383
28.5521
28.5413
28.5489
28.5424
28.55
28.5403
28.556
28.5367
28.573
28.5338
28.6137
28.5348
28.6994
28.5392
28.9264
28.5529
29.5619
27.5614
37.8343
28.7173
29.2452
28.6095
28.802
28.5532
28.6547
28.5388
28.5925
28.5366
28.5634
28.5387
28.5521
28.5419
28.549
28.5433
28.5497
28.5415
28.5555
28.5373
28.5721
28.534
28.6126
28.535
28.6984
28.5394
28.9254
28.5529
29.5609
27.5615
37.8344
28.7177
29.2453
28.61
28.8014
28.5536
28.6538
28.5391
28.5919
28.5368
28.5633
28.539
28.5526
28.5421
28.5494
28.5435
28.5506
28.5412
28.5567
28.5374
28.5729
28.5343
28.6131
28.5353
28.6983
28.5397
28.9249
28.5529
29.5599
27.5616
37.8346
28.7182
29.2459
28.6106
28.8016
28.554
28.6539
28.5394
28.592
28.5372
28.5635
28.5393
28.5528
28.5429
28.5496
28.5443
28.5503
28.5423
28.5559
28.5381
28.5713
28.5346
28.6113
28.5354
28.6966
28.5399
28.9232
28.5528
29.5584
27.5618
37.8348
28.7188
29.2454
28.6111
28.8
28.5544
28.6523
28.5396
28.5908
28.5375
28.5629
28.5399
28.5528
28.5432
28.5502
28.5443
28.5516
28.542
28.5572
28.5382
28.5721
28.535
28.6117
28.5357
28.696
28.5402
28.9218
28.5528
29.5567
27.5619
37.835
28.7196
29.2452
28.6118
28.7989
28.5549
28.6515
28.54
28.5906
28.5378
28.5633
28.54
28.5534
28.5439
28.5503
28.5454
28.5508
28.5438
28.5559
28.5392
28.5703
28.5355
28.6093
28.5358
28.6935
28.5406
28.9191
28.5528
29.5544
27.5621
37.8354
28.7206
29.2439
28.6125
28.7959
28.5555
28.6488
28.5402
28.5885
28.5383
28.5625
28.5409
28.5536
28.5445
28.5509
28.5454
28.5519
28.5434
28.557
28.5394
28.5713
28.536
28.6094
28.5363
28.6923
28.5411
28.9166
28.5528
29.5516
27.5624
37.8358
28.7219
29.2432
28.6133
28.7937
28.5561
28.6476
28.5406
28.588
28.5387
28.5628
28.5413
28.554
28.5452
28.5511
28.5466
28.5515
28.5451
28.5561
28.5404
28.5695
28.5365
28.6065
28.5365
28.689
28.5417
28.9126
28.5527
29.548
27.5627
37.8364
28.7236
29.2406
28.6142
28.7885
28.5567
28.6435
28.5409
28.5849
28.5394
28.5617
28.5426
28.5542
28.5458
28.5519
28.5466
28.553
28.5446
28.5575
28.5406
28.5704
28.5371
28.6054
28.5371
28.6867
28.5424
28.9082
28.5527
29.5434
27.5632
37.8372
28.7258
29.2394
28.6155
28.7853
28.5576
28.6423
28.5414
28.5839
28.54
28.5618
28.5434
28.5545
28.5468
28.5521
28.5477
28.5525
28.5461
28.5567
28.5417
28.5688
28.5378
28.6015
28.5375
28.6827
28.5433
28.902
28.5527
29.5374
27.5638
37.8383
28.7287
29.2346
28.6168
28.7775
28.5584
28.6372
28.5417
28.5805
28.5411
28.5609
28.545
28.5544
28.5479
28.5526
28.5481
28.5535
28.5463
28.5576
28.5423
28.5689
28.5386
28.5998
28.5383
28.6791
28.5444
28.8941
28.5527
29.5292
27.5647
37.8397
28.7325
29.232
28.6187
28.7727
28.5594
28.6356
28.5424
28.5794
28.542
28.561
28.5457
28.555
28.5484
28.553
28.5489
28.5533
28.5474
28.5571
28.5433
28.5678
28.5394
28.5966
28.5391
28.6745
28.5457
28.884
28.5526
29.5183
27.566
37.842
28.7377
29.2201
28.6202
28.7608
28.56
28.6299
28.543
28.5767
28.5435
28.5605
28.5481
28.555
28.5502
28.5536
28.5501
28.5543
28.5485
28.5578
28.5446
28.5673
28.5406
28.5934
28.5399
28.6668
28.5475
28.8692
28.5525
29.5007
27.5676
37.8453
28.7445
29.2137
28.6213
28.7526
28.5609
28.6253
28.5441
28.5752
28.5447
28.5605
28.5486
28.5556
28.5504
28.554
28.5506
28.5544
28.5493
28.5576
28.5457
28.5664
28.5416
28.5901
28.5409
28.6572
28.5496
28.8515
28.5527
29.4774
27.5701
37.8518
28.7534
29.1775
28.6214
28.7318
28.5601
28.6146
28.5455
28.5732
28.5479
28.5611
28.552
28.5568
28.5533
28.5555
28.5532
28.5561
28.5519
28.5587
28.5488
28.5662
28.5437
28.5861
28.5418
28.6439
28.5502
28.8214
28.552
29.4316
27.5726
37.8632
28.7614
29.162
28.6241
28.7188
28.5589
28.6063
28.5469
28.5714
28.549
28.5607
28.5523
28.5569
28.5533
28.5558
28.5533
28.5561
28.5524
28.5585
28.5498
28.565
28.545
28.5826
28.5427
28.6317
28.5492
28.7904
28.5514
29.3718
27.5751
37.8964
28.7708
29.0414
28.6064
28.6649
28.5481
28.5825
28.5429
28.56
28.5459
28.5527
28.5474
28.5498
28.5478
28.5489
28.5476
28.549
28.5469
28.5506
28.5453
28.555
28.5413
28.5666
28.5348
28.6002
28.5364
28.71
28.5397
29.2193
27.567
37.9833
28.7359
28.9879
28.53
28.5676
28.467
28.4957
28.4629
28.4774
28.4658
28.4713
28.467
28.469
28.4672
28.4682
28.4671
28.4684
28.4667
28.4698
28.4656
28.4735
28.4625
28.4831
28.4555
28.5089
28.4538
28.5871
28.4607
28.9852
27.5469
38.4327
28.2304
28.2112
27.3925
27.3271
27.2686
27.2543
27.2492
27.2453
27.2439
27.2424
27.2417
27.241
27.2406
27.2403
27.2401
27.24
27.24
27.2401
27.2403
27.2406
27.2412
27.2421
27.2427
27.2529
27.2476
27.2959
27.2887
27.7854
27.4717
29.5022
13.3825
10.6581
11.3071
9.91127
29.5023
13.3849
10.6652
11.3099
9.9164
10.013
29.5024
13.3843
10.6666
11.3097
9.91906
10.0139
9.67818
9.69198
29.5025
13.3868
10.6669
11.3116
9.91827
10.013
9.67615
9.69149
9.60573
9.61793
9.58638
9.59507
9.58356
9.59037
9.58447
29.5025
13.3862
10.6632
11.3108
9.91715
10.0167
9.68073
9.69362
9.60756
9.61776
9.58678
9.59431
9.58373
9.58999
9.58453
9.58968
29.5025
13.3885
10.6582
11.3114
9.91227
10.0171
9.67734
9.69407
9.60703
9.61858
9.58667
9.59501
9.5838
9.58986
9.58481
9.58915
9.58459
29.5026
13.3889
10.6537
11.3112
9.90999
10.0196
9.67939
9.69655
9.60894
9.61949
9.58783
9.59509
9.58418
9.58966
9.58489
9.58935
9.58431
9.5918
29.5027
13.3914
10.6477
11.312
9.9049
10.0218
9.6773
9.69681
9.60771
9.62015
9.58731
9.5962
9.58427
9.58963
9.58527
9.58871
9.58509
9.5906
9.58494
9.60879
9.59576
29.5028
13.393
10.6447
11.3125
9.90299
10.0229
9.67741
9.69744
9.60795
9.62047
9.58791
9.59614
9.58441
9.58975
9.58534
9.58894
9.58495
9.59121
9.58454
9.60923
9.59567
9.66259
9.63413
9.86598
9.76518
10.6371
10.3837
13.2811
12.4181
21.1084
29.5029
13.3959
10.6408
11.3137
9.90023
10.0249
9.67748
9.69834
9.60873
9.62166
9.58906
9.59632
9.58473
9.58961
9.58571
9.58857
9.58555
9.59031
9.58521
9.6086
9.59703
9.66239
9.63627
9.86611
9.76859
10.6371
10.3878
13.281
12.4214
21.1011
29.5031
13.3986
10.64
11.3147
9.89979
10.0249
9.67749
9.69779
9.6082
9.62107
9.58866
9.596
9.58463
9.59006
9.58583
9.58888
9.58525
9.5914
9.58449
9.60846
9.59559
9.66107
9.63454
9.86427
9.76712
10.6348
10.387
13.2789
12.4229
21.0941
29.5034
13.4023
10.6393
11.3163
9.89938
10.0253
9.67759
9.69754
9.60798
9.6211
9.58904
9.59631
9.58518
9.5899
9.58606
9.58883
9.58587
9.59062
9.58501
9.60745
9.59672
9.66045
9.63659
9.86316
9.77104
10.6333
10.3928
13.2768
12.4274
21.0823
29.5037
13.4063
10.6411
11.3181
9.90129
10.0238
9.67832
9.69659
9.60812
9.62028
9.5891
9.59607
9.58524
9.59017
9.5861
9.58949
9.58538
9.59165
9.5843
9.60702
9.59475
9.65847
9.63448
9.86025
9.77043
10.63
10.3948
13.2737
12.4315
21.0696
29.5042
13.4115
10.6438
11.3208
9.90331
10.0221
9.6776
9.69461
9.60598
9.61859
9.58773
9.59669
9.58598
9.5903
9.58658
9.58914
9.58646
9.59049
9.58563
9.60656
9.59656
9.65782
9.63661
9.85777
9.77481
10.6268
10.4027
13.2697
12.4385
21.051
29.5048
13.4176
10.6489
11.3232
9.90777
10.0186
9.67888
9.69309
9.60665
9.61717
9.58792
9.59564
9.58561
9.59054
9.58659
9.58983
9.58617
9.59152
9.58484
9.60595
9.59385
9.65516
9.63378
9.85332
9.77475
10.6221
10.4083
13.2646
12.4467
21.0293
29.5055
13.4254
10.6552
11.3271
9.91221
10.0157
9.67856
9.69045
9.60485
9.61537
9.58719
9.59579
9.58607
9.59066
9.5871
9.5896
9.58703
9.59077
9.58578
9.60506
9.59485
9.65362
9.63482
9.84884
9.77879
10.6168
10.4188
13.2581
12.4583
20.9994
29.5065
13.4351
10.6647
11.3296
9.9192
10.0095
9.67997
9.6878
9.60576
9.61346
9.58768
9.59437
9.58602
9.59104
9.58709
9.59046
9.58646
9.59196
9.58493
9.60371
9.59163
9.64939
9.6307
9.8414
9.77861
10.609
10.4294
13.2489
12.4743
20.9612
29.5078
13.4478
10.6747
11.3341
9.92489
10.0043
9.67916
9.68295
9.60435
9.61198
9.58764
9.59419
9.58659
9.59086
9.58762
9.59021
9.58748
9.59151
9.58575
9.60301
9.59223
9.64753
9.63031
9.83458
9.78092
10.6004
10.4425
13.2386
12.4947
20.9111
29.5095
13.4651
10.6925
11.3359
9.9335
9.99284
9.67879
9.67669
9.60403
9.60913
9.58791
9.59338
9.58702
9.59085
9.58777
9.59065
9.58729
9.59206
9.58559
9.60161
9.59016
9.64301
9.62521
9.82369
9.77963
10.5841
10.4567
13.2217
12.5291
20.8396
29.5119
13.4893
10.708
11.3383
9.93886
9.9822
9.67687
9.67115
9.60319
9.6077
9.58795
9.59343
9.58731
9.59104
9.58816
9.59071
9.58808
9.592
9.58632
9.60109
9.58977
9.64069
9.62262
9.81453
9.77765
10.568
10.4679
13.2073
12.5731
20.7489
29.5156
13.5267
10.7442
11.3253
9.94563
9.95421
9.67213
9.66046
9.6022
9.60404
9.5883
9.59257
9.58795
9.59063
9.58851
9.5906
9.58807
9.59203
9.5865
9.59961
9.58825
9.63531
9.61747
9.79583
9.76884
10.5318
10.4795
13.1725
12.6604
20.6034
29.5207
13.5927
10.7758
11.3186
9.95867
9.9303
9.67251
9.6541
9.60251
9.60269
9.58884
9.59296
9.58837
9.59128
9.58895
9.59121
9.58876
9.59235
9.5873
9.59916
9.58765
9.63251
9.61343
9.78198
9.75826
10.5094
10.482
13.1557
12.7717
20.4278
29.5297
13.7527
10.8744
11.2297
9.95614
9.86509
9.66324
9.63748
9.60024
9.598
9.58861
9.59197
9.58881
9.59068
9.58927
9.59071
9.58898
9.59185
9.58773
9.59719
9.58649
9.62461
9.60554
9.74868
9.72955
10.4201
10.4568
13.082
13.045
20.125
29.5385
14.199
11.049
11.1613
10.0192
9.83709
9.67698
9.6341
9.6036
9.59877
9.5906
9.59352
9.59046
9.59244
9.59086
9.59247
9.59067
9.59336
9.58956
9.59797
9.58748
9.62457
9.60383
9.74276
9.71894
10.3937
10.4182
13.1332
13.3175
19.8552
29.5447
16.2704
11.6301
10.8007
9.96488
9.73335
9.65534
9.61546
9.60144
9.59799
9.59211
9.5947
9.59261
9.59376
9.59278
9.59364
9.59257
9.59425
9.5919
9.59666
9.59012
9.61388
9.59714
9.69259
9.66701
10.1671
10.2416
12.9356
14.1846
19.504
29.5891
26.8631
14.1846
12.6898
10.2718
10.3997
9.82854
10.0004
9.82779
9.90039
9.84126
9.86811
9.8446
9.85436
9.842
9.84841
9.83506
9.84754
9.82079
9.85465
9.79119
9.88294
9.74066
9.98935
9.74464
10.579
10.2742
14.7371
12.5673
22.6998
29.218
60.9178
63.237
43.711
29.8184
30.7332
28.8963
29.0147
28.8905
28.9596
28.9375
28.9848
28.9715
28.9968
28.9834
28.9978
28.9709
28.988
28.9267
28.966
28.8354
28.9253
28.6784
28.8354
28.453
29.5885
28.2514
38.4091
54.4965
75.2608
29.714
11.5392
10.9527
10.0879
29.7141
11.5429
10.964
10.093
9.79773
9.70821
29.7141
11.5433
10.9603
10.0976
9.79569
9.71286
9.6068
9.58468
29.7142
11.546
10.9648
10.0948
9.79728
9.70991
9.60597
9.59066
9.55623
9.54436
9.5364
9.53257
9.53118
9.53098
9.53037
29.7141
11.5454
10.9557
10.0968
9.78948
9.71045
9.60486
9.58161
9.5515
9.54236
9.5359
9.53267
9.53141
9.53022
9.52967
9.53009
29.7142
11.5477
10.9536
10.0891
9.78368
9.70401
9.60307
9.59093
9.55695
9.54541
9.53665
9.53248
9.53101
9.5302
9.52972
9.52988
9.53036
29.7141
11.5482
10.9466
10.0906
9.77885
9.70336
9.60027
9.58288
9.55147
9.54324
9.53632
9.53332
9.53415
9.53
9.5296
9.52979
9.52956
9.53207
29.7141
11.5506
10.9422
10.0843
9.77222
9.69817
9.59828
9.58686
9.55508
9.54735
9.53765
9.53203
9.53203
9.53046
9.52924
9.53019
9.52994
9.53681
9.53615
9.54236
9.54718
29.7142
11.5528
10.9378
10.0858
9.76962
9.69812
9.59628
9.58349
9.55111
9.54576
9.53663
9.53219
9.53232
9.52979
9.52935
9.5298
9.5297
9.53462
9.53467
9.54128
9.54587
9.56329
9.57867
9.6173
9.67865
9.81627
10.0995
11.2399
11.2443
19.1858
29.7142
11.556
10.9338
10.0833
9.76552
9.69633
9.5956
9.58529
9.5536
9.54738
9.53762
9.53259
9.53381
9.52987
9.52907
9.52954
9.53035
9.53637
9.53587
9.54237
9.54791
9.56395
9.58001
9.61791
9.68008
9.81569
10.1014
11.2381
11.2452
19.1846
29.7143
11.5599
10.931
10.0855
9.76458
9.69719
9.59518
9.58438
9.5524
9.54659
9.53725
9.53236
9.5314
9.52982
9.52972
9.53014
9.53031
9.53347
9.53429
9.54095
9.54594
9.56174
9.57798
9.61626
9.67852
9.81241
10.101
11.2346
11.2464
19.1847
29.7144
11.5648
10.9287
10.0863
9.76335
9.6971
9.59496
9.5852
9.55311
9.54718
9.53733
9.53238
9.53207
9.52948
9.53012
9.52939
9.53007
9.53447
9.53461
9.54138
9.54716
9.56271
9.58017
9.61828
9.68123
9.81255
10.1039
11.2315
11.2475
19.1821
29.7146
11.5706
10.9267
10.09
9.76377
9.69842
9.595
9.58453
9.55272
9.54603
9.53744
9.53285
9.53317
9.52975
9.52962
9.53028
9.52953
9.53286
9.53461
9.54079
9.54665
9.56139
9.57871
9.61671
9.68057
9.81007
10.1053
11.228
11.2495
19.18
29.7149
11.5782
10.9263
10.0935
9.76524
9.69902
9.59519
9.58533
9.55304
9.5465
9.53778
9.5321
9.53228
9.53038
9.52967
9.52971
9.52999
9.53581
9.53548
9.54104
9.54711
9.56255
9.58095
9.6196
9.68424
9.81139
10.1099
11.2239
11.2514
19.1752
29.7152
11.5871
10.9254
10.1001
9.76711
9.70202
9.5956
9.58424
9.55207
9.54473
9.53647
9.53184
9.53224
9.53002
9.53005
9.52938
9.52992
9.53399
9.53447
9.54145
9.54663
9.56174
9.5794
9.61734
9.68391
9.80998
10.1133
11.2194
11.2547
19.1695
29.7156
11.5989
10.9276
10.1054
9.77045
9.70194
9.59657
9.58569
9.55315
9.54604
9.53785
9.53154
9.53325
9.53043
9.53012
9.5298
9.53063
9.53545
9.53449
9.54053
9.54468
9.56193
9.58066
9.62026
9.68813
9.81291
10.12
11.2132
11.2585
19.1609
29.7162
11.6135
10.9291
10.1166
9.77465
9.70804
9.59784
9.58296
9.55159
9.54291
9.53598
9.53166
9.53209
9.53064
9.53125
9.52999
9.53039
9.5324
9.53301
9.5412
9.54498
9.56156
9.57937
9.6175
9.68752
9.81246
10.126
11.2063
11.2645
19.1487
29.7169
11.6337
10.9328
10.1227
9.77818
9.70416
9.59864
9.58637
9.55458
9.54331
9.53668
9.53167
9.53196
9.53054
9.53096
9.53031
9.53052
9.53255
9.53276
9.53911
9.54285
9.56187
9.58012
9.62054
9.69149
9.81623
10.1345
11.1955
11.2729
19.1332
29.7182
11.6624
10.9404
10.1397
9.78648
9.71159
9.60084
9.57924
9.55199
9.54133
9.5363
9.53182
9.53202
9.53047
9.53101
9.53033
9.5308
9.5323
9.53191
9.53929
9.54164
9.56157
9.57875
9.61822
9.68955
9.81717
10.1447
11.1872
11.2856
19.1082
29.7194
11.7025
10.9449
10.1455
9.78784
9.70012
9.60078
9.58102
9.55374
9.54099
9.53632
9.53193
9.53204
9.53092
9.53097
9.53077
9.53063
9.53223
9.53193
9.53864
9.54061
9.56165
9.57764
9.62036
9.68955
9.82045
10.1534
11.1736
11.3061
19.0768
29.7226
11.7726
10.9688
10.1616
9.80075
9.6995
9.60293
9.57491
9.55304
9.53952
9.53684
9.53205
9.53195
9.53079
9.53077
9.53017
9.53116
9.53224
9.53141
9.53764
9.5378
9.55847
9.57207
9.61977
9.68362
9.82275
10.1663
11.166
11.3462
19.0251
29.7257
11.8782
10.9858
10.1629
9.81096
9.68728
9.60784
9.56952
9.55262
9.53804
9.53627
9.53183
9.53201
9.53069
9.53089
9.53053
9.53041
9.53188
9.53129
9.53802
9.53697
9.55887
9.56572
9.6234
9.67584
9.83502
10.1682
11.1606
11.412
18.9563
29.7368
12.1257
11.069
10.1593
9.82921
9.66543
9.60791
9.55928
9.55185
9.536
9.53606
9.53135
9.53145
9.53043
9.5305
9.53019
9.53053
9.53178
9.53086
9.53647
9.53457
9.55516
9.5565
9.61922
9.65468
9.84236
10.1663
11.1941
11.6068
18.872
29.7489
12.6498
11.2118
10.1045
9.8985
9.64496
9.62674
9.55366
9.55406
9.53441
9.53595
9.53097
9.53155
9.53028
9.53049
9.5303
9.53023
9.5314
9.53061
9.53673
9.53392
9.55696
9.55118
9.6324
9.63779
9.89846
10.1201
11.3092
11.8335
18.8165
29.7931
14.9237
11.768
10.1143
9.9077
9.6092
9.61558
9.5466
9.55148
9.53512
9.53617
9.53216
9.5323
9.53134
9.53146
9.53133
9.53128
9.53229
9.53148
9.53579
9.53275
9.55289
9.54099
9.62111
9.59198
9.93264
9.99619
11.7284
12.8851
18.9779
29.8909
25.3966
13.712
12.1594
10.1632
10.2596
9.75535
9.90933
9.75275
9.82559
9.76732
9.79499
9.7708
9.78148
9.76781
9.77525
9.76017
9.77354
9.74555
9.77881
9.71562
9.80202
9.67093
9.89678
9.6655
10.3954
9.90683
14.1732
11.5256
22.2769
29.3988
63.2258
67.1211
45.2339
30.9859
31.6879
29.8041
29.8725
29.772
29.8265
29.8102
29.8567
29.8412
29.8686
29.8514
29.8689
29.838
29.8586
29.7943
29.836
29.7047
29.7898
29.5513
29.678
29.3352
30.3951
29.162
39.8369
58.7433
79.5924
29.6916
10.187
10.1013
9.83378
9.80501
9.68726
29.6918
10.1878
10.1007
9.83375
9.80877
9.69991
9.63991
9.5928
29.6918
10.1879
10.1002
9.83575
9.80338
9.68853
9.62003
9.57579
9.56675
9.5484
9.53528
9.5306
9.52582
9.52526
9.52344
29.6919
10.1898
10.0961
9.83127
9.79979
9.71035
9.66187
9.59745
9.57198
9.54923
9.53475
9.53018
9.52342
9.52382
9.52354
9.52493
29.6918
10.1916
10.0906
9.82568
9.78272
9.6833
9.62093
9.58043
9.56794
9.54883
9.53561
9.53216
9.52876
9.52552
9.52327
9.52367
9.52555
29.6918
10.1935
10.0875
9.82276
9.77966
9.69028
9.63697
9.60202
9.57475
9.55152
9.539
9.539
9.52456
9.52617
9.52356
9.52769
9.52561
9.53029
29.6918
10.1962
10.082
9.81775
9.76696
9.67568
9.61744
9.58563
9.55867
9.54608
9.53823
9.54349
9.53183
9.52539
9.52247
9.52412
9.53268
9.53068
9.53898
9.54579
9.55333
29.6919
10.1981
10.0796
9.81713
9.76436
9.67694
9.61936
9.59189
9.55937
9.54617
9.53931
9.54061
9.53039
9.52521
9.5222
9.52326
9.52633
9.52648
9.53506
9.54805
9.55835
9.5716
9.5986
9.61428
9.69669
9.71377
9.88627
10.1396
10.1688
18.502
29.6919
10.2009
10.0755
9.81485
9.75748
9.67071
9.61356
9.58817
9.55944
9.55184
9.54432
9.53892
9.52623
9.52669
9.52283
9.52286
9.52976
9.52693
9.53721
9.5506
9.56034
9.57234
9.60303
9.61865
9.70214
9.71587
9.8902
10.1378
10.168
18.5027
29.6921
10.2031
10.0736
9.81638
9.75635
9.67138
9.61347
9.58958
9.55871
9.5509
9.54204
9.53342
9.52774
9.52716
9.52574
9.52486
9.52534
9.52934
9.53178
9.54105
9.55543
9.56721
9.59888
9.6141
9.69746
9.71177
9.88874
10.1356
10.1681
18.5039
29.6924
10.2058
10.0713
9.81794
9.75438
9.67008
9.61147
9.58797
9.55773
9.5514
9.54376
9.53559
9.53035
9.52623
9.52307
9.52331
9.52834
9.52736
9.53151
9.54402
9.55899
9.57044
9.60371
9.61833
9.7026
9.7137
9.89302
10.1329
10.1671
18.5043
29.6928
10.2084
10.0698
9.82159
9.75528
9.67241
9.61379
9.59057
9.56043
9.55417
9.54529
9.53954
9.52605
9.52558
9.5229
9.52632
9.52463
9.52897
9.52903
9.53814
9.55247
9.56486
9.59891
9.61499
9.70085
9.7121
9.8952
10.1309
10.1668
18.5049
29.6933
10.2113
10.0694
9.82732
9.7571
9.67502
9.61265
9.58646
9.55476
9.54481
9.53873
9.54362
9.53505
9.52539
9.52297
9.52349
9.53002
9.52875
9.5355
9.55012
9.56255
9.57203
9.60498
9.61971
9.70628
9.71503
9.90096
10.1278
10.1654
18.5045
29.6939
10.2149
10.0686
9.83308
9.76023
9.67931
9.61943
9.59205
9.562
9.54854
9.5382
9.53707
9.53004
9.5255
9.52334
9.52365
9.52574
9.52701
9.53169
9.54332
9.55089
9.56524
9.5976
9.61627
9.70629
9.71593
9.90731
10.1254
10.1648
18.5041
29.6947
10.2193
10.0708
9.84373
9.76585
9.68696
9.61884
9.58723
9.55634
9.54076
9.53764
9.5381
9.53179
9.52756
9.52311
9.5236
9.53062
9.52964
9.53493
9.54702
9.55793
9.57326
9.60365
9.62193
9.71177
9.72089
9.91554
10.122
10.1642
18.5023
29.6958
10.2255
10.0713
9.85232
9.77162
9.69236
9.63345
9.59905
9.57064
9.54627
9.53775
9.53335
9.52617
9.52765
9.52649
9.52635
9.52506
9.53034
9.52997
9.53768
9.5431
9.56263
9.5933
9.61866
9.71538
9.72459
9.92747
10.1205
10.1642
18.4982
29.6972
10.2357
10.0765
9.86795
9.77976
9.70077
9.62615
9.58219
9.56513
9.54452
9.53524
9.53129
9.52638
9.52549
9.52339
9.52305
9.52622
9.52616
9.5287
9.53921
9.54905
9.57553
9.59977
9.62579
9.71903
9.72958
9.93768
10.1175
10.1664
18.488
29.6992
10.2509
10.0808
9.88416
9.78913
9.70595
9.64894
9.58593
9.56596
9.54197
9.53454
9.52847
9.52634
9.52668
9.5242
9.52419
9.52491
9.52571
9.52782
9.53513
9.54384
9.56682
9.58433
9.62469
9.72478
9.73892
9.95603
10.1211
10.1693
18.4688
29.7017
10.2818
10.0896
9.90068
9.79883
9.70656
9.63212
9.57612
9.5622
9.5413
9.53322
9.52749
9.52542
9.52414
9.52379
9.52419
9.52685
9.52616
9.52658
9.53617
9.54204
9.57051
9.5814
9.62642
9.72059
9.74228
9.96713
10.122
10.1838
18.4433
29.7057
10.3306
10.1093
9.93488
9.81532
9.69767
9.63168
9.56816
9.56179
9.53621
9.53331
9.5288
9.52653
9.52481
9.5244
9.52341
9.52374
9.52573
9.52641
9.53426
9.53838
9.57157
9.58039
9.63491
9.72005
9.76006
9.98828
10.1448
10.2173
18.3954
29.7112
10.4315
10.131
9.9457
9.84076
9.68693
9.63945
9.56457
9.56184
9.53422
9.53394
9.5253
9.52481
9.5238
9.5233
9.5242
9.52376
9.52534
9.52531
9.53329
9.53398
9.56407
9.56958
9.64047
9.70559
9.78353
9.99691
10.1728
10.2982
18.3327
29.7209
10.6791
10.2491
9.999
9.86879
9.66186
9.63783
9.55309
9.55753
9.5296
9.5312
9.52469
9.5252
9.52333
9.52343
9.52318
9.52344
9.52466
9.52493
9.53265
9.53052
9.5628
9.5602
9.64255
9.68156
9.82758
10.0223
10.3026
10.5042
18.2575
29.7301
11.3053
10.436
9.958
9.97852
9.64814
9.66977
9.54937
9.56286
9.52922
9.53278
9.52389
9.52455
9.52311
9.52303
9.52346
9.52287
9.5249
9.52341
9.53213
9.52776
9.56393
9.55213
9.66499
9.65775
9.92459
9.99556
10.5461
10.7898
18.1363
29.7866
14.2557
11.3044
10.1868
10.0027
9.62228
9.64784
9.54266
9.55561
9.52829
9.53121
9.52526
9.52582
9.52443
9.52446
9.52435
9.52417
9.52556
9.52445
9.53201
9.5259
9.55797
9.53759
9.658
9.6022
10.0419
9.94806
11.4169
12.0346
18.2292
29.8794
26.4827
13.399
13.1439
10.4153
10.5939
9.74904
10.0187
9.72785
9.85206
9.75769
9.80377
9.76719
9.78546
9.76594
9.77902
9.75725
9.78064
9.73742
9.79549
9.697
9.84586
9.65861
10.0631
9.68478
10.9086
9.98868
14.5913
11.2257
20.5746
29.3895
64.6835
64.986
47.722
30.9163
33.8091
29.7933
30.7406
29.7113
29.8794
29.752
29.82
29.782
29.8209
29.7916
29.8203
29.7758
29.8193
29.7236
29.8199
29.6143
29.8638
29.4348
30.6744
29.2255
33.1623
29.2936
43.0819
56.4917
80.6233
29.69
10.0716
10.0242
9.8336
9.79965
9.72582
9.66366
9.60186
29.6902
10.0731
10.0293
9.83294
9.80935
9.71546
9.66477
9.62356
29.6898
10.0723
10.0176
9.82574
9.76804
9.68969
9.64884
9.58542
29.6898
10.0747
10.015
9.81838
9.75343
9.67197
9.64453
9.62401
29.6895
10.0744
10.0089
9.81532
9.74074
9.65841
9.61596
9.57842
29.6894
10.0765
10.0052
9.81
9.72649
9.64703
9.61359
9.59197
9.57123
9.56128
9.5379
9.54609
9.54707
9.53612
9.52477
9.5311
9.52847
29.6893
10.0768
10.0018
9.80973
9.72228
9.64226
9.6009
9.57434
9.54826
9.55133
9.53756
9.54731
9.54833
9.5307
9.52388
9.52391
9.52584
9.55181
9.55796
9.54151
9.54745
9.55604
9.57697
9.59214
9.64432
9.70762
9.80719
10.071
10.0876
18.3652
29.6892
10.0785
9.99865
9.80778
9.71409
9.63667
9.59602
9.57722
9.55139
9.54938
9.531
9.54454
9.5787
9.52921
9.52451
9.52543
9.53441
9.56706
9.56704
9.54697
9.5573
9.56095
9.58022
9.59347
9.64549
9.70801
9.80842
10.0692
10.0871
18.3651
29.6893
10.0793
9.99649
9.80965
9.71321
9.63694
9.59434
9.57445
9.54899
9.54637
9.53292
9.52885
9.53328
9.54837
9.5337
9.54166
9.53823
9.52873
9.53486
9.54084
9.54606
9.55273
9.57415
9.58909
9.64247
9.70474
9.80893
10.0677
10.0876
18.3653
29.6894
10.0808
9.99467
9.81122
9.71066
9.63663
9.5934
9.57709
9.55022
9.5484
9.53068
9.53213
9.5312
9.52814
9.53355
9.52435
9.5246
9.54579
9.53943
9.54265
9.55069
9.55566
9.57898
9.59177
9.64563
9.70513
9.81148
10.0649
10.0871
18.3644
29.6896
10.0821
9.99274
9.81435
9.71075
9.6384
9.59323
9.57441
9.54954
9.54335
9.53734
9.55155
9.56904
9.52758
9.52499
9.52974
9.54306
9.53601
9.54251
9.5421
9.55173
9.55486
9.57721
9.59016
9.64465
9.70393
9.81409
10.0638
10.0874
18.3633
29.69
10.084
9.99242
9.81973
9.71363
9.64331
9.59934
9.58316
9.55573
9.55204
9.54308
9.55105
9.54811
9.53528
9.52335
9.52919
9.527
9.58077
9.56772
9.54313
9.55229
9.5568
9.58142
9.59427
9.64965
9.70504
9.81872
10.0604
10.0869
18.3612
29.6904
10.086
9.99048
9.82487
9.7149
9.64873
9.59911
9.57914
9.55299
9.54656
9.53635
9.54239
9.53864
9.5308
9.52503
9.52339
9.52677
9.54194
9.55235
9.54202
9.55235
9.55876
9.57992
9.59385
9.64936
9.70505
9.82301
10.059
10.0873
18.3576
29.691
10.0894
9.99185
9.83268
9.7209
9.65353
9.61224
9.59296
9.5654
9.55714
9.54169
9.55015
9.55195
9.53071
9.52389
9.52275
9.52978
9.5791
9.56162
9.5412
9.54268
9.55891
9.58331
9.60037
9.65838
9.7081
9.83028
10.0547
10.0876
18.3534
29.6919
10.0934
9.99037
9.8423
9.72661
9.66912
9.61022
9.58129
9.56128
9.5477
9.5287
9.52773
9.53867
9.55253
9.54377
9.52921
9.5502
9.53041
9.53584
9.54637
9.55279
9.5675
9.5862
9.60314
9.65779
9.71082
9.83669
10.0533
10.0889
18.3447
29.6929
10.101
9.99308
9.85226
9.73229
9.6631
9.63037
9.61092
9.57319
9.54226
9.5291
9.52481
9.52457
9.52464
9.52742
9.52957
9.52453
9.52906
9.53084
9.53409
9.54902
9.57303
9.58912
9.61106
9.67047
9.71539
9.84674
10.0487
10.0909
18.3348
29.6948
10.1117
9.99633
9.87234
9.75293
9.69916
9.63639
9.57919
9.5574
9.5401
9.53051
9.52457
9.52902
9.52364
9.53349
9.52398
9.52654
9.52495
9.52613
9.53591
9.54419
9.57486
9.60345
9.6248
9.66566
9.72171
9.85595
10.0495
10.0939
18.3101
29.6966
10.1293
9.99829
9.88295
9.74777
9.66092
9.64929
9.60153
9.56705
9.53785
9.53109
9.52751
9.52541
9.52537
9.52488
9.52957
9.52507
9.5278
9.52589
9.53289
9.54152
9.57322
9.60407
9.63177
9.66854
9.72786
9.86521
10.0468
10.1017
18.2841
29.7012
10.1612
10.0174
9.92021
9.80166
9.69303
9.6467
9.58268
9.56046
9.53499
9.53264
9.52514
9.52633
9.52296
9.52595
9.52357
9.53007
9.52617
9.5278
9.53204
9.53766
9.56838
9.59426
9.64192
9.658
9.73842
9.88891
10.0617
10.1154
18.236
29.7065
10.2589
10.0283
9.9241
9.81347
9.67732
9.65251
9.57102
9.55535
9.53211
9.53193
9.52844
9.52545
9.52268
9.52304
9.52275
9.52279
9.52516
9.52354
9.53335
9.53318
9.5664
9.57644
9.65264
9.64964
9.75968
9.89592
10.0821
10.1629
18.1733
29.7191
10.5325
10.1427
9.98323
9.86806
9.65603
9.64263
9.5544
9.55479
9.53086
9.52944
9.52297
9.52299
9.52208
9.52202
9.52205
9.52242
9.52378
9.52279
9.52975
9.52975
9.55903
9.56178
9.64997
9.629
9.8041
9.93348
10.2177
10.3803
18.1015
29.7319
11.1737
10.3178
9.92616
9.95423
9.61731
9.67782
9.54751
9.55595
9.52508
9.52995
9.52263
9.52342
9.52149
9.52174
9.52147
9.52122
9.52215
9.52191
9.53173
9.53089
9.5641
9.5503
9.68487
9.6204
9.9009
9.90482
10.4429
10.6778
17.9809
29.7902
14.2045
11.2096
10.1827
9.99471
9.61042
9.65273
9.53791
9.55292
9.52605
9.5297
9.52335
9.52367
9.5228
9.52261
9.5228
9.52252
9.52387
9.52268
9.52877
9.52362
9.55813
9.53297
9.66923
9.58001
10.0485
9.89161
11.3785
11.9554
18.0378
29.8872
26.5218
13.3577
13.1771
10.4251
10.5745
9.747
9.98915
9.70828
9.82981
9.73891
9.78541
9.74958
9.76882
9.74828
9.76337
9.73969
9.76475
9.72178
9.77735
9.6865
9.82535
9.65182
10.0487
9.67825
10.9262
9.96731
14.5483
11.1809
20.2582
29.392
65.0899
65.0546
47.701
30.9332
33.6986
29.7536
30.528
29.6348
29.7257
29.6713
29.7336
29.7023
29.7422
29.7127
29.7436
29.6985
29.7404
29.6516
29.7353
29.5477
29.7296
29.3657
30.4887
29.1757
33.2535
29.3244
43.4711
56.7004
80.8549
29.6828
10.0483
9.84605
9.76144
9.77784
29.6829
10.0497
9.83651
9.73353
9.73225
29.6825
10.0526
9.83764
9.73469
9.70133
29.6825
10.054
9.83203
9.72258
9.68351
9.66489
9.6569
9.66827
29.6822
10.0576
9.83322
9.72378
9.67303
9.62873
9.59674
9.56914
29.6822
10.0589
9.82988
9.72021
9.66507
9.62825
9.60554
9.59512
9.55758
9.67705
9.59705
9.63351
9.58852
9.57309
9.57952
9.57911
9.62058
9.64798
9.72293
9.85952
10.0544
18.3311
29.6821
10.0625
9.82962
9.71926
9.65732
9.61158
9.58387
9.56554
9.55337
9.76353
9.64124
9.66517
9.58987
9.56793
9.58588
9.58706
9.62858
9.65138
9.72542
9.85732
10.0542
18.3307
29.6823
10.0645
9.8277
9.72001
9.65451
9.61304
9.58502
9.57083
9.55035
9.55468
9.58896
9.55525
9.6004
9.56141
9.54977
9.56867
9.56321
9.58235
9.58202
9.62284
9.64789
9.72557
9.85699
10.0553
18.3306
29.6825
10.0679
9.8269
9.72109
9.65214
9.60922
9.58001
9.56374
9.54823
9.55863
9.60991
9.56597
9.56602
9.53743
9.55895
9.5765
9.56565
9.58757
9.5855
9.62626
9.64832
9.72713
9.85388
10.0554
18.3292
29.6829
10.0712
9.82526
9.72354
9.6514
9.61213
9.58448
9.5698
9.55484
9.57062
9.60654
9.70864
9.67698
9.57027
9.54213
9.56183
9.55748
9.58282
9.58273
9.62656
9.64805
9.73049
9.85349
10.0564
18.3282
29.6835
10.0749
9.82494
9.72913
9.65521
9.61829
9.58523
9.56476
9.54965
9.55195
9.66246
9.77181
9.8006
9.63079
9.63805
9.6093
9.56954
9.58731
9.58531
9.62729
9.64734
9.73153
9.84969
10.0567
18.3245
29.6842
10.08
9.82227
9.73137
9.6543
9.62222
9.60189
9.58441
9.57657
9.57166
9.60404
9.65402
9.66241
9.5738
9.61004
9.56277
9.55647
9.57789
9.5833
9.63375
9.64998
9.73907
9.84952
10.0579
18.3214
29.6851
10.0851
9.82405
9.74575
9.66948
9.64613
9.60247
9.57643
9.56901
9.58997
9.69894
9.7511
9.79404
9.63899
9.58551
9.59576
9.58841
9.59437
9.5969
9.63493
9.65086
9.74043
9.84543
10.0588
18.3136
29.6864
10.0929
9.81852
9.74385
9.66212
9.6439
9.65057
9.66412
9.66563
9.56735
9.58328
9.6069
9.59136
9.67962
9.69917
9.5896
9.56128
9.55492
9.56294
9.5799
9.59268
9.65611
9.66068
9.75579
9.84661
10.0605
18.3059
29.6879
10.1017
9.82648
9.77326
9.69913
9.69343
9.62782
9.56963
9.6602
9.59027
9.55103
9.53402
9.53619
9.57455
9.54039
9.53288
9.59822
9.53732
9.52864
9.55394
9.5872
9.66269
9.62097
9.61796
9.64883
9.65862
9.75856
9.84237
10.0633
18.2921
29.6902
10.1145
9.81915
9.77493
9.68116
9.71243
9.81274
9.60327
9.60242
9.55206
9.54
9.52616
9.53309
9.56172
9.52842
9.55935
9.53699
9.53205
9.53021
9.54587
9.58784
9.61742
9.57181
9.61236
9.69395
9.68735
9.7818
9.84851
10.0668
18.2717
29.6929
10.1326
9.83594
9.80676
9.74609
9.73498
9.63238
9.56207
9.61343
9.57237
9.54254
9.5319
9.55388
9.53082
9.52978
9.53016
9.59737
9.5343
9.52573
9.54777
9.57638
9.63671
9.56896
9.60034
9.68381
9.67778
9.79681
9.84727
10.0753
18.2475
29.6973
10.1577
9.84627
9.85718
9.76887
9.70937
9.61762
9.5584
9.60834
9.542
9.54188
9.57321
9.54023
9.53063
9.52697
9.52331
9.53298
9.57817
9.5312
9.53885
9.5583
9.67606
9.60277
9.63715
9.70862
9.71934
9.81534
9.87024
10.0877
18.1968
29.7031
10.209
9.86586
9.85945
9.80538
9.68051
9.63547
9.55993
9.5834
9.53535
9.542
9.52562
9.5266
9.52641
9.52432
9.52626
9.52528
9.52576
9.53829
9.53709
9.54132
9.58153