/*--------------------------------*- C++ -*----------------------------------*\
  =========                 |
  \\      /  F ield         | OpenFOAM: The Open Source CFD Toolbox
   \\    /   O peration     | Website:  https://openfoam.org
    \\  /    A nd           | Version:  10
     \\/     M anipulation  |
\*---------------------------------------------------------------------------*/
FoamFile
{
    format      ascii;
    class       volScalarField;
    location    "0.1";
    object      p;
}
// * * * * * * * * * * * * * * * * * * * * * * * * * * * * * * * * * * * * * //

dimensions      [0 2 -2 0 0 0 0];

internalField   nonuniform List<scalar> 
116800
(
134.538
133.833
134.7
134.363
134.754
134.532
133.829
134.693
134.356
134.745
134.627
134.525
133.825
134.685
134.351
134.734
134.622
134.787
134.737
134.518
133.818
134.679
134.343
134.726
134.615
134.784
134.734
134.829
134.784
134.844
134.806
134.847
134.821
134.859
134.51
133.812
134.67
134.336
134.718
134.611
134.78
134.734
134.825
134.785
134.84
134.809
134.846
134.827
134.864
134.838
134.501
133.803
134.663
134.325
134.716
134.607
134.781
134.731
134.823
134.783
134.839
134.81
134.845
134.832
134.872
134.849
134.872
134.491
133.794
134.652
134.316
134.71
134.604
134.779
134.731
134.821
134.783
134.837
134.812
134.849
134.835
134.877
134.856
134.878
134.841
134.481
133.784
134.645
134.306
134.707
134.599
134.78
134.728
134.82
134.781
134.836
134.812
134.852
134.84
134.879
134.858
134.887
134.852
134.873
134.832
134.871
134.47
133.774
134.635
134.297
134.702
134.596
134.777
134.726
134.818
134.781
134.836
134.815
134.856
134.847
134.883
134.861
134.894
134.859
134.883
134.838
134.879
134.826
134.884
134.825
134.878
134.866
134.808
135.055
134.554
134.869
134.459
133.764
134.627
134.285
134.702
134.59
134.775
134.722
134.819
134.779
134.837
134.817
134.863
134.858
134.89
134.863
134.899
134.862
134.89
134.845
134.884
134.833
134.89
134.832
134.885
134.873
134.814
135.061
134.559
134.873
134.447
133.754
134.617
134.279
134.696
134.586
134.771
134.72
134.818
134.78
134.837
134.821
134.869
134.867
134.898
134.871
134.908
134.872
134.9
134.852
134.891
134.838
134.899
134.837
134.895
134.878
134.823
135.065
134.566
134.877
134.435
133.744
134.609
134.272
134.691
134.579
134.769
134.716
134.819
134.78
134.839
134.825
134.876
134.869
134.906
134.88
134.914
134.882
134.909
134.861
134.898
134.846
134.905
134.844
134.901
134.884
134.829
135.069
134.571
134.88
134.421
133.734
134.599
134.264
134.684
134.574
134.765
134.713
134.818
134.783
134.842
134.832
134.885
134.875
134.913
134.887
134.924
134.89
134.92
134.869
134.909
134.852
134.914
134.849
134.911
134.889
134.837
135.072
134.577
134.883
134.405
133.722
134.59
134.255
134.678
134.567
134.763
134.71
134.817
134.784
134.849
134.837
134.894
134.881
134.919
134.896
134.932
134.905
134.928
134.88
134.917
134.862
134.92
134.857
134.917
134.894
134.843
135.075
134.582
134.885
134.386
133.707
134.576
134.246
134.669
134.562
134.759
134.709
134.815
134.787
134.854
134.844
134.899
134.887
134.925
134.904
134.939
134.912
134.939
134.89
134.929
134.87
134.928
134.862
134.926
134.898
134.851
135.077
134.588
134.886
134.362
133.689
134.562
134.232
134.663
134.555
134.757
134.708
134.815
134.791
134.861
134.851
134.903
134.89
134.931
134.912
134.946
134.913
134.947
134.902
134.938
134.879
134.928
134.869
134.932
134.903
134.858
135.078
134.593
134.885
134.332
133.665
134.541
134.215
134.654
134.554
134.754
134.712
134.814
134.798
134.869
134.862
134.911
134.899
134.937
134.921
134.955
134.933
134.958
134.914
134.948
134.887
134.934
134.875
134.941
134.907
134.866
135.079
134.597
134.883
134.292
133.633
134.517
134.196
134.645
134.552
134.755
134.715
134.815
134.806
134.879
134.872
134.922
134.909
134.945
134.929
134.962
134.937
134.967
134.926
134.957
134.898
134.94
134.883
134.948
134.91
134.875
135.078
134.602
134.879
134.239
133.591
134.483
134.178
134.632
134.553
134.755
134.726
134.829
134.821
134.891
134.891
134.932
134.919
134.952
134.938
134.969
134.945
134.975
134.937
134.967
134.91
134.949
134.892
134.954
134.917
134.886
135.074
134.604
134.869
134.163
133.53
134.444
134.151
134.62
134.551
134.76
134.736
134.843
134.835
134.904
134.905
134.942
134.928
134.96
134.945
134.975
134.953
134.982
134.945
134.975
134.922
134.958
134.897
134.952
134.918
134.9
135.067
134.605
134.848
134.051
133.444
134.387
134.131
134.608
134.565
134.768
134.759
134.861
134.857
134.92
134.915
134.952
134.939
134.967
134.955
134.981
134.963
134.988
134.956
134.983
134.935
134.965
134.905
134.949
134.915
134.907
135.048
134.593
134.799
133.877
133.317
134.319
134.108
134.608
134.584
134.79
134.784
134.884
134.878
134.938
134.927
134.961
134.948
134.974
134.962
134.987
134.97
134.996
134.966
134.994
134.949
134.977
134.916
134.952
134.909
134.904
135.014
134.576
134.693
133.607
133.133
134.215
134.118
134.625
134.639
134.83
134.832
134.916
134.915
134.956
134.945
134.972
134.962
134.983
134.975
134.995
134.983
135.005
134.981
135.004
134.969
134.988
134.934
134.955
134.9
134.885
134.946
134.491
134.462
133.18
132.899
134.123
134.159
134.692
134.715
134.892
134.883
134.957
134.95
134.982
134.966
134.989
134.978
134.998
134.989
135.008
134.998
135.02
135.001
135.025
134.994
135.012
134.963
134.984
134.917
134.909
134.865
134.384
134.008
132.477
132.564
134.074
134.363
134.859
134.878
134.989
134.973
135.012
134.998
135.016
135.004
135.017
135.011
135.023
135.019
135.033
135.029
135.044
135.035
135.051
135.032
135.043
135.011
135.024
134.965
134.939
134.767
134.18
133.071
131.246
132.246
134.432
134.783
135.174
135.077
135.119
135.066
135.086
135.06
135.072
135.058
135.068
135.062
135.072
135.069
135.082
135.079
135.093
135.087
135.104
135.092
135.108
135.095
135.135
135.13
135.178
134.971
134.264
131.043
126.671
130.209
135.711
135.783
135.638
135.377
135.295
135.218
135.199
135.175
135.172
135.163
135.165
135.163
135.168
135.169
135.177
135.179
135.189
135.189
135.201
135.201
135.219
135.23
135.299
135.374
135.539
135.492
134.374
124.607
134.318
133.611
134.63
133.736
134.737
134.311
133.602
134.635
133.717
134.745
133.978
134.305
133.605
134.608
133.739
134.71
134.007
134.759
134.193
134.298
133.592
134.613
133.714
134.719
133.968
134.772
134.166
134.777
134.309
134.755
134.398
134.738
134.438
134.734
134.29
133.592
134.583
133.733
134.682
133.995
134.745
134.203
134.748
134.344
134.73
134.425
134.719
134.46
134.72
134.465
134.281
133.576
134.587
133.703
134.692
133.955
134.754
134.168
134.75
134.323
134.728
134.417
134.714
134.461
134.717
134.461
134.728
134.272
133.572
134.558
133.717
134.657
133.978
134.73
134.2
134.731
134.348
134.714
134.434
134.705
134.474
134.721
134.472
134.726
134.461
134.261
133.554
134.561
133.685
134.666
133.938
134.74
134.163
134.739
134.32
134.718
134.421
134.705
134.466
134.727
134.471
134.734
134.466
134.754
134.403
134.784
134.251
133.547
134.536
133.694
134.637
133.961
134.712
134.187
134.723
134.34
134.707
134.434
134.698
134.472
134.726
134.477
134.734
134.47
134.766
134.399
134.802
134.286
134.827
134.133
134.798
133.949
134.728
133.836
134.99
134.493
134.239
133.528
134.536
133.665
134.645
133.927
134.722
134.152
134.736
134.311
134.718
134.419
134.704
134.463
134.729
134.482
134.75
134.472
134.767
134.409
134.8
134.301
134.822
134.152
134.794
133.969
134.727
133.85
134.993
134.496
134.227
133.519
134.514
133.668
134.62
133.941
134.697
134.171
134.72
134.328
134.708
134.43
134.697
134.469
134.727
134.488
134.755
134.476
134.783
134.402
134.821
134.288
134.846
134.137
134.816
133.956
134.743
133.842
135.001
134.499
134.214
133.501
134.512
133.644
134.626
133.911
134.706
134.145
134.734
134.307
134.717
134.42
134.703
134.47
134.729
134.493
134.754
134.474
134.775
134.417
134.813
134.311
134.836
134.163
134.809
133.98
134.74
133.858
135.003
134.502
134.2
133.489
134.492
133.645
134.604
133.92
134.697
134.148
134.718
134.32
134.707
134.428
134.698
134.475
134.729
134.498
134.767
134.483
134.794
134.41
134.836
134.299
134.861
134.149
134.831
133.97
134.756
133.853
135.011
134.503
134.184
133.468
134.486
133.623
134.608
133.897
134.707
134.13
134.727
134.308
134.713
134.426
134.705
134.482
134.729
134.507
134.755
134.486
134.779
134.433
134.821
134.331
134.845
134.183
134.82
133.999
134.751
133.871
135.012
134.504
134.165
133.453
134.463
133.63
134.577
133.911
134.683
134.152
134.706
134.328
134.701
134.441
134.708
134.493
134.726
134.513
134.762
134.486
134.793
134.43
134.841
134.326
134.866
134.178
134.838
133.998
134.762
133.872
135.017
134.504
134.141
133.423
134.458
133.604
134.581
133.886
134.697
134.139
134.714
134.321
134.705
134.443
134.718
134.499
134.726
134.522
134.753
134.504
134.778
134.457
134.823
134.362
134.848
134.217
134.825
134.031
134.757
133.893
135.017
134.502
134.112
133.4
134.422
133.579
134.585
133.916
134.673
134.176
134.694
134.35
134.693
134.465
134.708
134.515
134.719
134.534
134.753
134.508
134.784
134.464
134.836
134.367
134.861
134.227
134.833
134.047
134.759
133.907
135.014
134.498
134.072
133.357
134.401
133.551
134.583
133.899
134.687
134.166
134.703
134.343
134.702
134.46
134.715
134.513
134.724
134.538
134.749
134.525
134.774
134.488
134.821
134.4
134.848
134.266
134.825
134.083
134.757
133.93
135.014
134.492
134.021
133.325
134.352
133.579
134.544
133.955
134.664
134.22
134.689
134.386
134.69
134.479
134.703
134.537
134.717
134.558
134.747
134.542
134.776
134.505
134.824
134.423
134.847
134.299
134.817
134.125
134.742
133.966
134.997
134.479
133.947
133.263
134.307
133.543
134.541
133.942
134.684
134.208
134.707
134.379
134.704
134.471
134.715
134.533
134.725
134.558
134.748
134.552
134.789
134.526
134.82
134.448
134.848
134.33
134.826
134.164
134.754
133.996
135.006
134.454
133.839
133.213
134.235
133.603
134.534
134.03
134.669
134.295
134.7
134.442
134.697
134.519
134.709
134.569
134.719
134.588
134.744
134.58
134.783
134.558
134.81
134.49
134.83
134.387
134.8
134.238
134.713
134.062
134.951
134.393
133.666
133.086
134.215
133.581
134.552
134.021
134.696
134.284
134.727
134.435
134.727
134.513
134.722
134.563
134.725
134.585
134.745
134.581
134.782
134.561
134.817
134.504
134.847
134.416
134.833
134.282
134.775
134.115
135.01
134.268
133.392
132.984
134.11
133.756
134.569
134.215
134.71
134.425
134.725
134.519
134.721
134.576
134.714
134.608
134.718
134.623
134.736
134.62
134.764
134.604
134.785
134.57
134.804
134.499
134.778
134.373
134.684
134.206
134.827
133.98
132.937
132.976
134.107
133.774
134.65
134.202
134.763
134.409
134.752
134.502
134.735
134.565
134.721
134.6
134.721
134.617
134.737
134.616
134.769
134.6
134.809
134.577
134.839
134.532
134.852
134.459
134.861
134.329
135.163
133.435
132.065
132.495
134.064
134.223
134.792
134.572
134.802
134.62
134.756
134.632
134.721
134.642
134.707
134.653
134.708
134.662
134.72
134.667
134.74
134.667
134.76
134.661
134.771
134.636
134.753
134.553
134.611
134.359
134.254
132.208
130.597
132.643
134.912
134.152
135.095
134.507
134.882
134.595
134.779
134.607
134.728
134.626
134.707
134.641
134.706
134.652
134.719
134.657
134.744
134.657
134.778
134.654
134.809
134.67
134.871
134.706
135.083
134.913
135.92
129.971
127.3
128.331
136.004
135.972
135.846
135.362
135.295
135.159
135.163
135.126
135.127
135.106
135.116
135.107
135.118
135.113
135.126
135.122
135.139
135.135
135.154
135.146
135.174
135.169
135.271
135.342
135.578
135.511
134.356
122.197
134.448
134.496
134.655
134.687
134.442
134.495
134.635
134.702
134.668
134.613
134.435
134.486
134.638
134.678
134.676
134.576
134.692
134.514
134.428
134.484
134.612
134.698
134.643
134.616
134.66
134.562
134.692
134.53
134.713
134.511
134.719
134.502
134.721
134.42
134.471
134.618
134.665
134.655
134.563
134.675
134.504
134.707
134.484
134.725
134.483
134.73
134.486
134.732
134.49
134.412
134.469
134.59
134.685
134.624
134.602
134.649
134.553
134.682
134.531
134.695
134.525
134.693
134.528
134.69
134.537
134.703
134.402
134.453
134.595
134.652
134.634
134.551
134.663
134.496
134.691
134.485
134.704
134.497
134.703
134.514
134.699
134.522
134.722
134.509
134.393
134.448
134.571
134.665
134.608
134.579
134.645
134.533
134.677
134.522
134.683
134.529
134.674
134.544
134.671
134.551
134.684
134.536
134.716
134.537
134.735
134.382
134.432
134.572
134.636
134.616
134.537
134.657
134.485
134.685
134.483
134.689
134.508
134.682
134.532
134.686
134.532
134.715
134.514
134.761
134.507
134.782
134.507
134.793
134.536
134.806
134.586
134.826
134.565
134.891
134.654
134.37
134.422
134.555
134.639
134.598
134.552
134.645
134.506
134.679
134.498
134.686
134.511
134.683
134.537
134.675
134.549
134.69
134.542
134.729
134.536
134.751
134.536
134.77
134.562
134.789
134.608
134.817
134.579
134.891
134.658
134.358
134.407
134.55
134.617
134.603
134.52
134.655
134.471
134.688
134.471
134.691
134.498
134.687
134.531
134.688
134.534
134.723
134.522
134.771
134.508
134.798
134.504
134.814
134.532
134.827
134.587
134.844
134.568
134.904
134.661
134.345
134.394
134.535
134.613
134.588
134.526
134.643
134.485
134.681
134.484
134.684
134.505
134.678
134.536
134.679
134.551
134.7
134.546
134.743
134.537
134.771
134.532
134.793
134.555
134.813
134.605
134.838
134.58
134.905
134.664
134.33
134.377
134.527
134.592
134.592
134.499
134.654
134.456
134.693
134.459
134.697
134.488
134.693
134.527
134.695
134.543
134.726
134.534
134.778
134.516
134.809
134.509
134.829
134.534
134.844
134.59
134.861
134.572
134.916
134.665
134.313
134.36
134.509
134.585
134.576
134.503
134.642
134.471
134.68
134.483
134.678
134.516
134.663
134.547
134.678
134.563
134.707
134.555
134.757
134.543
134.79
134.534
134.816
134.549
134.838
134.601
134.861
134.579
134.918
134.667
134.294
134.338
134.498
134.565
134.578
134.479
134.655
134.443
134.694
134.457
134.698
134.498
134.688
134.538
134.701
134.556
134.735
134.547
134.786
134.531
134.816
134.524
134.838
134.541
134.858
134.594
134.876
134.575
134.926
134.667
134.269
134.312
134.475
134.554
134.556
134.482
134.639
134.464
134.681
134.489
134.684
134.529
134.671
134.559
134.688
134.576
134.719
134.57
134.768
134.559
134.805
134.545
134.834
134.549
134.861
134.597
134.884
134.576
134.93
134.666
134.239
134.282
134.457
134.53
134.564
134.466
134.655
134.443
134.696
134.466
134.707
134.513
134.702
134.557
134.709
134.573
134.738
134.571
134.782
134.558
134.815
134.55
134.84
134.555
134.866
134.599
134.89
134.576
134.932
134.663
134.199
134.237
134.427
134.503
134.545
134.466
134.637
134.467
134.683
134.497
134.698
134.541
134.696
134.571
134.708
134.588
134.736
134.588
134.775
134.579
134.814
134.566
134.845
134.56
134.878
134.594
134.908
134.574
134.94
134.659
134.146
134.195
134.397
134.492
134.546
134.472
134.651
134.467
134.697
134.496
134.715
134.54
134.717
134.574
134.723
134.591
134.744
134.596
134.776
134.589
134.809
134.582
134.835
134.578
134.868
134.599
134.902
134.574
134.93
134.647
134.069
134.121
134.362
134.447
134.533
134.46
134.638
134.48
134.689
134.516
134.708
134.557
134.714
134.583
134.725
134.601
134.747
134.606
134.778
134.603
134.814
134.596
134.847
134.589
134.886
134.6
134.934
134.574
134.951
134.624
133.959
134.056
134.309
134.459
134.539
134.505
134.652
134.522
134.696
134.544
134.713
134.576
134.719
134.599
134.726
134.614
134.743
134.624
134.766
134.625
134.798
134.622
134.821
134.612
134.854
134.603
134.902
134.573
134.91
134.564
133.781
133.945
134.283
134.4
134.564
134.469
134.67
134.512
134.707
134.547
134.716
134.579
134.723
134.601
134.732
134.618
134.75
134.629
134.774
134.636
134.807
134.635
134.84
134.632
134.891
134.627
134.968
134.594
134.984
134.441
133.494
133.794
134.222
134.466
134.597
134.583
134.692
134.604
134.71
134.609
134.711
134.618
134.714
134.629
134.72
134.641
134.733
134.653
134.753
134.661
134.777
134.66
134.799
134.65
134.826
134.617
134.863
134.567
134.82
134.145
133.022
133.734
134.245
134.414
134.685
134.532
134.747
134.577
134.741
134.598
134.729
134.613
134.725
134.628
134.73
134.642
134.743
134.654
134.764
134.665
134.792
134.675
134.829
134.689
134.896
134.7
135.027
134.671
135.144
133.605
132.149
133.109
134.203
134.682
134.824
134.776
134.793
134.717
134.736
134.678
134.71
134.663
134.703
134.662
134.706
134.669
134.717
134.681
134.733
134.693
134.753
134.702
134.775
134.698
134.783
134.654
134.728
134.496
134.299
132.358
130.622
133.088
134.822
134.506
135.096
134.691
134.879
134.686
134.771
134.661
134.729
134.655
134.714
134.659
134.715
134.669
134.727
134.681
134.746
134.697
134.772
134.719
134.807
134.751
134.891
134.827
135.137
135.033
135.835
129.968
127.032
128.157
136.343
136.174
135.954
135.406
135.303
135.152
135.146
135.101
135.107
135.086
135.095
135.086
135.097
135.093
135.106
135.104
135.12
135.117
135.137
135.131
135.162
135.173
135.274
135.364
135.619
135.585
134.513
122.049
134.465
134.285
134.957
134.091
135.043
134.007
134.46
134.298
134.903
134.145
134.973
134.095
134.97
134.166
134.452
134.278
134.929
134.096
135.002
134.029
134.978
134.109
134.905
134.224
134.863
134.294
134.848
134.323
134.854
134.446
134.29
134.873
134.148
134.926
134.112
134.928
134.199
134.863
134.307
134.818
134.36
134.813
134.375
134.826
134.375
134.436
134.268
134.896
134.099
134.955
134.043
134.932
134.125
134.857
134.254
134.813
134.34
134.796
134.382
134.809
134.387
134.825
134.429
134.274
134.845
134.141
134.888
134.115
134.893
134.203
134.852
134.313
134.795
134.382
134.785
134.408
134.798
134.422
134.821
134.397
134.418
134.25
134.868
134.089
134.92
134.04
134.912
134.118
134.86
134.238
134.807
134.347
134.788
134.404
134.802
134.418
134.832
134.397
134.859
134.323
134.924
134.408
134.251
134.825
134.119
134.864
134.098
134.876
134.184
134.85
134.299
134.794
134.384
134.777
134.428
134.794
134.439
134.827
134.405
134.873
134.311
134.958
134.205
135.034
134.139
135.072
134.173
135.074
134.364
134.939
134.69
134.396
134.226
134.846
134.069
134.891
134.035
134.911
134.098
134.88
134.215
134.83
134.342
134.795
134.411
134.807
134.432
134.841
134.401
134.881
134.311
134.96
134.216
135.022
134.159
135.054
134.2
135.06
134.385
134.937
134.694
134.383
134.221
134.813
134.087
134.845
134.076
134.873
134.149
134.858
134.263
134.813
134.373
134.78
134.433
134.797
134.453
134.839
134.408
134.903
134.303
134.993
134.192
135.066
134.129
135.095
134.175
135.09
134.37
134.951
134.697
134.369
134.196
134.831
134.041
134.882
134.012
134.913
134.079
134.892
134.203
134.841
134.342
134.799
134.425
134.808
134.446
134.841
134.41
134.893
134.313
134.98
134.214
135.045
134.159
135.073
134.208
135.075
134.393
134.948
134.7
134.354
134.186
134.804
134.05
134.845
134.039
134.874
134.12
134.86
134.243
134.819
134.366
134.782
134.434
134.799
134.462
134.85
134.415
134.919
134.306
135.015
134.192
135.09
134.126
135.115
134.18
135.106
134.378
134.961
134.703
134.336
134.157
134.819
134.006
134.88
133.986
134.914
134.068
134.887
134.206
134.832
134.348
134.797
134.436
134.803
134.461
134.844
134.424
134.895
134.327
134.986
134.228
135.057
134.168
135.091
134.213
135.09
134.401
134.957
134.706
134.316
134.142
134.791
134.012
134.843
134.015
134.869
134.116
134.848
134.254
134.802
134.38
134.767
134.454
134.784
134.477
134.839
134.432
134.91
134.33
135.013
134.217
135.094
134.144
135.128
134.19
135.115
134.39
134.967
134.707
134.29
134.105
134.802
133.963
134.88
133.964
134.909
134.073
134.864
134.229
134.801
134.368
134.778
134.454
134.79
134.477
134.832
134.446
134.884
134.362
134.973
134.263
135.054
134.195
135.099
134.227
135.101
134.413
134.963
134.708
134.26
134.082
134.769
133.971
134.843
134.005
134.863
134.136
134.827
134.291
134.772
134.409
134.748
134.48
134.76
134.504
134.814
134.464
134.884
134.382
134.982
134.274
135.07
134.192
135.114
134.224
135.108
134.416
134.961
134.705
134.217
134.03
134.772
133.917
134.873
133.958
134.899
134.097
134.833
134.263
134.785
134.388
134.768
134.464
134.777
134.492
134.809
134.47
134.862
134.409
134.946
134.314
135.041
134.239
135.098
134.254
135.106
134.436
134.962
134.705
134.165
133.992
134.73
133.936
134.838
134.016
134.858
134.18
134.8
134.336
134.757
134.44
134.74
134.502
134.751
134.531
134.788
134.501
134.853
134.439
134.939
134.349
135.027
134.265
135.081
134.278
135.081
134.456
134.937
134.696
134.082
133.913
134.721
133.87
134.863
133.971
134.89
134.139
134.828
134.302
134.787
134.415
134.765
134.485
134.771
134.511
134.801
134.497
134.85
134.453
134.929
134.377
135.022
134.303
135.089
134.304
135.102
134.478
134.952
134.678
133.967
133.842
134.662
133.923
134.837
134.08
134.857
134.261
134.799
134.396
134.763
134.479
134.749
134.534
134.751
134.558
134.777
134.544
134.827
134.497
134.899
134.425
134.978
134.36
135.027
134.354
135.032
134.495
134.883
134.624
133.788
133.727
134.642
133.842
134.863
134.017
134.893
134.203
134.845
134.353
134.802
134.454
134.771
134.515
134.767
134.54
134.791
134.532
134.841
134.494
134.919
134.438
135.005
134.388
135.073
134.392
135.109
134.524
134.956
134.514
133.499
133.574
134.546
133.998
134.862
134.246
134.875
134.395
134.815
134.487
134.769
134.544
134.745
134.582
134.743
134.599
134.764
134.593
134.802
134.567
134.852
134.526
134.908
134.479
134.939
134.453
134.927
134.503
134.746
134.231
133.009
133.492
134.567
133.882
134.916
134.141
134.912
134.324
134.847
134.439
134.795
134.514
134.762
134.56
134.755
134.581
134.775
134.578
134.82
134.555
134.887
134.523
134.958
134.507
135.028
134.531
135.133
134.621
135.106
133.719
132.087
132.898
134.374
134.405
134.988
134.611
134.902
134.615
134.803
134.616
134.748
134.628
134.723
134.641
134.721
134.651
134.735
134.655
134.759
134.653
134.791
134.644
134.82
134.617
134.82
134.559
134.715
134.404
134.169
132.417
130.507
132.658
135.036
133.862
135.229
134.362
134.957
134.516
134.826
134.577
134.761
134.599
134.732
134.621
134.726
134.635
134.742
134.639
134.775
134.634
134.813
134.638
134.872
134.644
134.952
134.694
135.211
134.871
135.995
129.928
126.861
128.076
136.71
136.136
136.069
135.369
135.324
135.126
135.143
135.069
135.097
135.069
135.085
135.07
135.086
135.078
135.096
135.09
135.113
135.104
135.132
135.103
135.164
135.158
135.288
135.365
135.666
135.63
134.706
122.858
134.481
134.464
134.842
134.477
134.932
134.437
134.881
134.416
134.475
134.467
134.808
134.515
134.89
134.52
134.849
134.512
134.467
134.448
134.815
134.465
134.892
134.423
134.862
134.392
134.46
134.454
134.776
134.51
134.859
134.497
134.857
134.497
134.451
134.431
134.784
134.455
134.865
134.413
134.859
134.384
134.44
134.432
134.752
134.49
134.831
134.476
134.846
134.465
134.832
134.486
134.77
134.521
134.69
134.528
134.696
134.539
134.729
134.432
134.409
134.761
134.439
134.852
134.4
134.865
134.372
134.837
134.401
134.778
134.486
134.696
134.516
134.707
134.517
134.782
134.443
134.899
134.427
134.96
134.41
135.002
134.43
135.027
134.494
135.008
134.564
134.85
134.704
134.421
134.403
134.74
134.454
134.83
134.435
134.854
134.418
134.841
134.435
134.791
134.453
134.761
134.499
134.706
134.527
134.747
134.46
134.856
134.454
134.911
134.445
134.961
134.475
134.988
134.537
134.98
134.594
134.843
134.708
134.409
134.381
134.746
134.412
134.851
134.376
134.878
134.349
134.854
134.378
134.789
134.447
134.735
134.519
134.703
134.495
134.803
134.458
134.907
134.413
134.986
134.388
135.035
134.416
135.053
134.494
135.025
134.57
134.861
134.711
134.396
134.369
134.732
134.412
134.837
134.393
134.864
134.382
134.845
134.414
134.779
134.458
134.733
134.496
134.718
134.523
134.764
134.481
134.864
134.449
134.937
134.432
134.991
134.459
135.017
134.532
135.003
134.595
134.856
134.715
134.38
134.345
134.732
134.378
134.856
134.343
134.89
134.323
134.867
134.356
134.806
134.417
134.776
134.49
134.719
134.53
134.777
134.482
134.905
134.42
134.996
134.39
135.052
134.416
135.068
134.501
135.039
134.578
134.871
134.717
134.362
134.326
134.713
134.377
134.838
134.359
134.869
134.367
134.842
134.432
134.751
134.52
134.665
134.537
134.692
134.557
134.749
134.473
134.881
134.453
134.958
134.43
135.019
134.447
135.044
134.527
135.027
134.594
134.868
134.72
134.341
134.296
134.719
134.337
134.858
134.311
134.895
134.306
134.862
134.362
134.791
134.466
134.71
134.524
134.719
134.548
134.789
134.478
134.914
134.44
134.993
134.412
135.054
134.428
135.08
134.507
135.05
134.586
134.876
134.721
134.313
134.266
134.704
134.323
134.838
134.328
134.868
134.363
134.844
134.447
134.759
134.543
134.673
134.553
134.703
134.571
134.757
134.497
134.882
134.484
134.966
134.454
135.036
134.447
135.075
134.513
135.051
134.593
134.878
134.722
134.281
134.229
134.702
134.289
134.859
134.291
134.897
134.308
134.853
134.368
134.805
134.475
134.745
134.564
134.719
134.569
134.775
134.534
134.882
134.492
134.968
134.459
135.038
134.457
135.078
134.514
135.055
134.597
134.875
134.721
134.237
134.176
134.685
134.256
134.837
134.302
134.856
134.372
134.834
134.444
134.787
134.519
134.741
134.553
134.743
134.573
134.795
134.546
134.878
134.523
134.964
134.498
135.034
134.469
135.086
134.513
135.07
134.601
134.882
134.72
134.183
134.13
134.67
134.246
134.852
134.306
134.883
134.35
134.848
134.42
134.814
134.498
134.778
134.562
134.763
134.571
134.793
134.564
134.864
134.543
134.939
134.52
135.004
134.503
135.056
134.528
135.051
134.606
134.859
134.711
134.103
134.041
134.651
134.179
134.836
134.29
134.826
134.398
134.815
134.463
134.793
134.52
134.774
134.551
134.774
134.574
134.805
134.568
134.866
134.559
134.939
134.542
135.013
134.52
135.08
134.539
135.084
134.613
134.881
134.693
133.989
133.973
134.61
134.215
134.842
134.374
134.843
134.455
134.816
134.497
134.798
134.545
134.772
134.578
134.77
134.591
134.793
134.599
134.833
134.596
134.899
134.59
134.946
134.568
135.004
134.556
135.014
134.607
134.815
134.638
133.802
133.847
134.594
134.111
134.854
134.303
134.828
134.433
134.807
134.494
134.788
134.532
134.779
134.563
134.779
134.588
134.799
134.599
134.84
134.6
134.899
134.598
134.967
134.592
135.052
134.593
135.095
134.632
134.894
134.529
133.499
133.709
134.51
134.245
134.864
134.492
134.837
134.568
134.792
134.579
134.771
134.596
134.755
134.612
134.754
134.625
134.771
134.637
134.799
134.642
134.841
134.639
134.882
134.622
134.925
134.585
134.928
134.564
134.691
134.245
132.993
133.614
134.532
134.083
134.917
134.347
134.862
134.488
134.812
134.542
134.781
134.57
134.768
134.593
134.767
134.614
134.782
134.627
134.814
134.635
134.862
134.642
134.921
134.652
135.012
134.672
135.128
134.672
135.051
133.728
132.064
133.008
134.369
134.569
134.996
134.755
134.882
134.714
134.783
134.673
134.741
134.656
134.724
134.656
134.724
134.664
134.737
134.676
134.76
134.687
134.79
134.691
134.816
134.675
134.82
134.609
134.725
134.4
134.147
132.419
130.466
132.743
135.008
133.957
135.235
134.464
134.94
134.595
134.801
134.624
134.758
134.626
134.736
134.639
134.735
134.653
134.749
134.667
134.774
134.68
134.803
134.692
134.856
134.721
134.949
134.759
135.213
134.861
135.953
129.877
126.748
128.125
136.854
136.168
136.123
135.381
135.329
135.13
135.14
135.062
135.092
135.064
135.078
135.064
135.08
135.073
135.092
135.087
135.11
135.105
135.131
135.12
135.167
135.168
135.297
135.384
135.691
135.669
134.774
123.022
134.469
134.332
134.984
134.092
135.155
134.463
134.356
134.919
134.171
135.084
134.451
134.33
134.929
134.125
135.076
134.443
134.345
134.871
134.184
135.018
134.138
135.04
134.23
134.431
134.317
134.888
134.128
135.032
134.057
135.006
134.109
134.421
134.324
134.839
134.173
134.979
134.131
135.002
134.209
134.929
134.46
134.865
134.314
135.039
134.189
135.17
134.135
135.207
134.204
135.137
134.397
134.885
134.719
134.407
134.294
134.865
134.109
135.016
134.035
135.027
134.066
134.949
134.455
134.874
134.286
135.042
134.193
135.143
134.154
135.175
134.234
135.113
134.423
134.878
134.723
134.396
134.293
134.824
134.139
134.966
134.093
134.996
134.145
134.953
134.262
134.855
134.417
134.479
134.92
134.308
135.084
134.168
135.203
134.117
135.236
134.197
135.154
134.403
134.896
134.726
134.381
134.263
134.852
134.077
135.015
134.006
135.046
134.036
134.991
134.149
134.9
134.372
134.477
134.899
134.295
135.069
134.181
135.175
134.147
135.206
134.23
135.131
134.431
134.889
134.729
134.366
134.255
134.818
134.095
134.967
134.051
134.997
134.104
134.958
134.217
134.877
134.403
134.494
134.942
134.31
135.106
134.165
135.228
134.108
135.262
134.19
135.173
134.408
134.906
134.731
134.347
134.221
134.845
134.034
135.019
133.974
135.053
134.028
134.982
134.166
134.873
134.379
134.477
134.891
134.283
135.076
134.188
135.188
134.153
135.224
134.23
135.153
134.432
134.899
134.734
134.326
134.206
134.816
134.047
134.975
134.021
134.994
134.105
134.936
134.248
134.836
134.424
134.497
134.906
134.329
135.089
134.201
135.222
134.128
135.268
134.197
135.19
134.408
134.911
134.734
134.299
134.163
134.837
133.98
135.023
133.948
135.044
134.046
134.914
134.233
134.758
134.415
134.493
134.872
134.348
135.038
134.234
135.176
134.181
135.23
134.237
135.17
134.431
134.908
134.735
134.268
134.141
134.81
133.992
134.992
133.997
134.995
134.131
134.899
134.33
134.74
134.466
134.702
134.549
134.527
134.855
134.432
135.009
134.298
135.163
134.185
135.244
134.226
135.178
134.423
134.906
134.734
134.225
134.081
134.82
133.923
135.024
133.944
135.024
134.098
134.793
134.313
134.732
134.438
134.731
134.501
134.754
134.537
134.784
134.514
134.828
134.457
134.944
134.305
135.139
134.234
135.225
134.256
135.18
134.436
134.912
134.732
134.17
134.042
134.789
133.932
135.009
133.979
134.992
134.195
134.771
134.397
134.711
134.491
134.7
134.52
134.719
134.597
134.735
134.555
134.804
134.502
134.92
134.398
135.087
134.262
135.2
134.274
135.147
134.445
134.883
134.722
134.088
133.954
134.785
133.861
135.025
133.964
134.982
134.165
134.781
134.353
134.748
134.456
134.724
134.522
134.754
134.532
134.802
134.518
134.814
134.505
134.914
134.428
135.075
134.324
135.201
134.302
135.18
134.452
134.909
134.704
133.972
133.879
134.732
133.899
135.006
134.05
134.942
134.306
134.76
134.44
134.736
134.487
134.747
134.542
134.741
134.591
134.746
134.596
134.775
134.539
134.887
134.433
135.039
134.362
135.131
134.334
135.09
134.46
134.828
134.647
133.784
133.756
134.717
133.798
135.027
133.979
134.978
134.2
134.863
134.366
134.809
134.474