/*--------------------------------*- C++ -*----------------------------------*\
  =========                 |
  \\      /  F ield         | OpenFOAM: The Open Source CFD Toolbox
   \\    /   O peration     | Website:  https://openfoam.org
    \\  /    A nd           | Version:  10
     \\/     M anipulation  |
\*---------------------------------------------------------------------------*/
FoamFile
{
    format      ascii;
    class       volVectorField;
    location    "0.1";
    object      U;
}
// * * * * * * * * * * * * * * * * * * * * * * * * * * * * * * * * * * * * * //

dimensions      [0 1 -1 0 0 0 0];

internalField   nonuniform List<vector> 
116800
(
(0.41279 -0.00827297 -0.263911)
(1.13807 -0.00801887 0.197436)
(0.23851 -0.00447931 -0.162942)
(0.630088 -0.00667024 0.229251)
(-0.0390711 -0.00406074 -0.0245284)
(0.413156 -0.0110013 -0.263982)
(1.13872 -0.0105477 0.197147)
(0.239541 -0.00795878 -0.162281)
(0.630052 -0.00884493 0.228698)
(-0.0378653 -0.00791715 -0.0240267)
(0.318168 -0.00834401 0.0988343)
(0.41345 -0.0139944 -0.264032)
(1.13916 -0.013555 0.197028)
(0.240808 -0.0109011 -0.161688)
(0.629376 -0.0121687 0.228752)
(-0.0354383 -0.00998575 -0.023168)
(0.316405 -0.0114739 0.0988139)
(-0.0716596 -0.00723388 -0.0073406)
(0.163702 -0.00991232 0.0507116)
(0.41359 -0.0170336 -0.26403)
(1.13946 -0.0163274 0.196928)
(0.240695 -0.0152842 -0.161917)
(0.630401 -0.0145469 0.228593)
(-0.0356219 -0.0151116 -0.0237148)
(0.318185 -0.0126931 0.098406)
(-0.07171 -0.0124297 -0.008034)
(0.165864 -0.00981895 0.0503277)
(-0.046497 -0.00872578 0.0034537)
(0.0962757 -0.00758558 0.0314198)
(-0.0177749 -0.00570619 0.0107898)
(0.0638039 -0.00503615 0.0229664)
(-0.000873032 -0.00283512 0.0132883)
(0.0488229 -0.00202653 0.0192948)
(0.00721611 0.00121767 0.0153606)
(0.413668 -0.0205133 -0.264017)
(1.13957 -0.0198788 0.197024)
(0.241231 -0.0183379 -0.161594)
(0.630358 -0.0185098 0.229157)
(-0.0339092 -0.017046 -0.0229999)
(0.31779 -0.0166157 0.0992715)
(-0.0686119 -0.0128907 -0.00706967)
(0.164845 -0.0133692 0.0509125)
(-0.0427913 -0.00921942 0.00439669)
(0.0955433 -0.00989572 0.0315502)
(-0.0142022 -0.00593017 0.0115674)
(0.063353 -0.00622301 0.0230225)
(0.0019307 -0.00251733 0.0142621)
(0.0478131 -0.00218057 0.0196034)
(0.0104863 0.00182051 0.0153393)
(0.044911 0.0015444 0.0189927)
(0.41362 -0.0240701 -0.263952)
(1.13959 -0.0231655 0.19707)
(0.240112 -0.0233673 -0.162669)
(0.632323 -0.0212631 0.229252)
(-0.0353044 -0.0229408 -0.0245037)
(0.321426 -0.0181609 0.0993694)
(-0.0700588 -0.0190189 -0.00848376)
(0.169472 -0.0136274 0.0511682)
(-0.0431945 -0.0135159 0.00375166)
(0.0989964 -0.00981339 0.031832)
(-0.0132348 -0.00839862 0.0113743)
(0.0655119 -0.00579635 0.023426)
(0.00351816 -0.00339511 0.014929)
(0.0483215 -0.00166733 0.019508)
(0.0132313 0.0018136 0.0163954)
(0.0455803 0.0024968 0.0182413)
(0.0138509 0.00579221 0.0163128)
(0.413601 -0.028218 -0.263902)
(1.13959 -0.0274327 0.197245)
(0.240225 -0.0264561 -0.162308)
(0.632907 -0.0258544 0.229952)
(-0.0341899 -0.0247713 -0.0237322)
(0.322188 -0.0229009 0.100465)
(-0.0678063 -0.0196101 -0.00744667)
(0.170365 -0.0180321 0.0521834)
(-0.040237 -0.014378 0.00463578)
(0.100426 -0.0127035 0.0323618)
(-0.0102834 -0.00893644 0.0122814)
(0.0665368 -0.00704456 0.0237119)
(0.00653399 -0.00290469 0.0165124)
(0.049064 -0.00158983 0.0199397)
(0.0163383 0.00215864 0.0168651)
(0.0467639 0.0034118 0.0189628)
(0.017089 0.00645397 0.0159188)
(0.0530929 0.00806413 0.0204437)
(0.413537 -0.0325189 -0.263828)
(1.13959 -0.0315062 0.197312)
(0.238964 -0.0317856 -0.163495)
(0.635265 -0.0292369 0.230125)
(-0.0356011 -0.0305659 -0.0252181)
(0.326349 -0.0251353 0.100799)
(-0.0691389 -0.0252943 -0.00846626)
(0.175784 -0.0192069 0.0527024)
(-0.04058 -0.0187041 0.00397849)
(0.105223 -0.0135302 0.0329459)
(-0.00939576 -0.0116428 0.0120311)
(0.0694816 -0.00737052 0.0246907)
(0.00881956 -0.00402743 0.0167939)
(0.0509491 -0.00160448 0.0201262)
(0.019653 0.00221678 0.0178712)
(0.0484605 0.00398883 0.0186587)
(0.0212279 0.00814333 0.0177268)
(0.0546361 0.00913118 0.0188256)
(0.00828947 0.013711 0.0166901)
(0.0676457 0.0144911 0.0242467)
(-0.025629 0.0175218 0.0106869)
(0.413588 -0.0374723 -0.263785)
(1.13975 -0.036591 0.197402)
(0.239083 -0.0354234 -0.163077)
(0.63635 -0.0343821 0.23062)
(-0.0345818 -0.0329929 -0.0245303)
(0.327884 -0.0303419 0.101605)
(-0.0671379 -0.0267451 -0.00738281)
(0.177969 -0.0240635 0.0535488)
(-0.0376615 -0.0200929 0.00461818)
(0.107869 -0.0170328 0.0336215)
(-0.0065549 -0.0127926 0.0125371)
(0.0713424 -0.0092007 0.0252751)
(0.0123837 -0.00433394 0.0172331)
(0.0534098 -0.00159389 0.0208842)
(0.0231803 0.00231583 0.0182957)
(0.0512472 0.00506924 0.0196196)
(0.0248054 0.00871976 0.0177469)
(0.0582054 0.0118322 0.0201652)
(0.0122758 0.0149778 0.0162904)
(0.0726441 0.0178511 0.0250938)
(-0.0226362 0.0199752 0.0102458)
(0.0948005 0.0237237 0.0371388)
(-0.0879507 0.0257341 0.000383704)
(0.127202 0.0294098 0.0661549)
(-0.225556 0.0303095 -0.0149717)
(0.116461 0.0332085 0.14208)
(-0.561201 0.0333184 -0.0621543)
(-0.108971 0.0357839 0.382195)
(-1.16214 0.0317962 -0.49553)
(0.284777 0.0373604 0.324714)
(0.413692 -0.0427307 -0.263744)
(1.14003 -0.0416946 0.197363)
(0.238453 -0.0410293 -0.163727)
(0.638666 -0.0387206 0.230687)
(-0.0349614 -0.0384544 -0.0253016)
(0.331552 -0.0337036 0.101825)
(-0.0669808 -0.0318027 -0.00756812)
(0.182735 -0.0265556 0.0537871)
(-0.0363635 -0.0239131 0.00463524)
(0.112368 -0.0190379 0.0337715)
(-0.00462797 -0.0153065 0.0130434)
(0.0742983 -0.010567 0.0253273)
(0.0158682 -0.0054527 0.0179781)
(0.0566118 -0.00196946 0.0212141)
(0.0272532 0.00250114 0.0193555)
(0.0542043 0.00534433 0.0200121)
(0.0295956 0.0103699 0.0191075)
(0.0611093 0.0126983 0.0191669)
(0.0182571 0.0179344 0.0176054)
(0.0765889 0.0194611 0.0242848)
(-0.0172909 0.0239668 0.0117056)
(0.0983339 0.0261093 0.0364065)
(-0.083225 0.0304072 0.00135632)
(0.130099 0.0325204 0.065347)
(-0.221358 0.0357002 -0.0141537)
(0.119507 0.0373402 0.141757)
(-0.558339 0.0389874 -0.0614964)
(-0.106568 0.0408127 0.38188)
(-1.1606 0.0374504 -0.494949)
(0.285407 0.0429232 0.324502)
(0.413963 -0.048689 -0.263742)
(1.14056 -0.0477465 0.197258)
(0.238992 -0.0456997 -0.163142)
(0.640116 -0.0444738 0.230798)
(-0.0334183 -0.0419334 -0.0245876)
(0.333356 -0.0392065 0.102102)
(-0.0641733 -0.0343949 -0.00667723)
(0.185254 -0.0313796 0.0541007)
(-0.0325856 -0.0260136 0.00519302)
(0.115503 -0.0224291 0.0342441)
(-0.00122344 -0.0169766 0.013287)
(0.0769875 -0.0121638 0.0260717)
(0.020111 -0.0062674 0.0178466)
(0.0603878 -0.00199194 0.0222573)
(0.0316791 0.00271922 0.0196253)
(0.0582548 0.00676986 0.0209407)
(0.0338733 0.0110092 0.0190426)
(0.0663797 0.0158962 0.0210953)
(0.0224224 0.0191666 0.016993)
(0.0830853 0.0237941 0.0255964)
(-0.0135086 0.0264466 0.0115379)
(0.104431 0.030677 0.0370934)
(-0.0796742 0.0333975 0.000981192)
(0.135154 0.037327 0.0653881)
(-0.217941 0.0396732 -0.0142822)
(0.12421 0.0427831 0.141756)
(-0.555837 0.0440732 -0.0615052)
(-0.10306 0.0468408 0.381666)
(-1.15921 0.0434526 -0.494523)
(0.286209 0.049067 0.324223)
(0.414364 -0.0551748 -0.263759)
(1.14134 -0.0541323 0.197011)
(0.239338 -0.0519512 -0.163007)
(0.642311 -0.0499537 0.23067)
(-0.032367 -0.0475493 -0.0245197)
(0.33633 -0.0437212 0.10198)
(-0.061992 -0.0392714 -0.00628087)
(0.189201 -0.0347981 0.054017)
(-0.0294322 -0.0295997 0.0056395)
(0.119829 -0.0247324 0.0343431)
(0.00189024 -0.0191596 0.0136209)
(0.0804819 -0.0134957 0.0264295)
(0.0247896 -0.00708195 0.0186229)
(0.0644925 -0.00261153 0.0225554)
(0.0369976 0.00308298 0.0204885)
(0.0624819 0.0072809 0.0215622)
(0.0396934 0.0132532 0.0202261)
(0.0701449 0.0165441 0.020485)
(0.0296806 0.0231766 0.0183843)
(0.0871377 0.025089 0.0250702)
(-0.00598776 0.0316229 0.0139674)
(0.108298 0.0328857 0.0364671)
(-0.0726225 0.0389757 0.00223486)
(0.138251 0.0407136 0.064469)
(-0.21179 0.0459796 -0.0132029)
(0.127692 0.0476779 0.141248)
(-0.551544 0.0508075 -0.0605694)
(-0.100105 0.0530453 0.38112)
(-1.15702 0.0503945 -0.493714)
(0.286962 0.0559961 0.32389)
(0.414968 -0.0624901 -0.263818)
(1.14244 -0.061494 0.196632)
(0.240691 -0.0579742 -0.161988)
(0.643921 -0.0566477 0.230503)
(-0.0296782 -0.0521353 -0.0234681)
(0.337968 -0.0497695 0.101695)
(-0.0574479 -0.0425867 -0.00523155)
(0.191294 -0.0399228 0.0537745)
(-0.0240903 -0.0319588 0.00657816)
(0.122835 -0.0279614 0.0343891)
(0.00676314 -0.0201588 0.0146286)
(0.0838845 -0.014942 0.0267739)
(0.0306495 -0.00752466 0.0193069)
(0.0692815 -0.00256549 0.0234375)
(0.0425772 0.00335203 0.0207457)
(0.0679 0.00874653 0.0225873)
(0.0447738 0.0136708 0.0197057)
(0.0763678 0.0197469 0.0222863)
(0.0347412 0.0243108 0.0177888)
(0.093897 0.0298281 0.0263869)
(-0.000110622 0.0344822 0.0137092)
(0.115564 0.0381441 0.0368762)
(-0.0671246 0.0422357 0.00203038)
(0.144029 0.0462876 0.0641554)
(-0.206332 0.0507737 -0.0130328)
(0.133115 0.0540937 0.140934)
(-0.547325 0.0571741 -0.0601536)
(-0.0959123 0.0604398 0.380595)
(-1.15477 0.0579609 -0.492955)
(0.287922 0.0637862 0.323466)
(0.41576 -0.070618 -0.263907)
(1.14388 -0.0695355 0.196074)
(0.242106 -0.0655346 -0.161059)
(0.646149 -0.0635458 0.230119)
(-0.0271274 -0.0586117 -0.0226632)
(0.340615 -0.0553208 0.101044)
(-0.0531284 -0.0479137 -0.00439027)
(0.194605 -0.0439791 0.0532493)
(-0.0194714 -0.0359202 0.00726815)
(0.126294 -0.0300641 0.0346716)
(0.0122365 -0.0213954 0.0151104)
(0.0887953 -0.0158773 0.0278846)
(0.0367819 -0.00870239 0.0197249)
(0.0745039 -0.00332224 0.0241622)
(0.0494036 0.00376167 0.0214995)
(0.0729205 0.00873055 0.0226717)
(0.0522681 0.016404 0.0212348)
(0.0803081 0.0200127 0.0211356)
(0.0435017 0.0286865 0.0194969)
(0.0969874 0.03082 0.025487)
(0.0108368 0.040555 0.0149042)
(0.120071 0.0403434 0.0359362)
(-0.0574816 0.0485539 0.00330181)
(0.147523 0.0501706 0.063029)
(-0.197549 0.058154 -0.0116667)
(0.137402 0.0600296 0.140207)
(-0.540917 0.065323 -0.0587732)
(-0.0919937 0.0682837 0.37973)
(-1.15154 0.0667432 -0.491764)
(0.288912 0.0727002 0.322945)
(0.416817 -0.0798361 -0.264046)
(1.14571 -0.0787814 0.19531)
(0.244581 -0.0732316 -0.159241)
(0.64786 -0.071741 0.229647)
(-0.0228022 -0.0642868 -0.0208992)
(0.341998 -0.0623573 0.100215)
(-0.0461439 -0.0517537 -0.00287765)
(0.196108 -0.0495912 0.0524407)
(-0.0122616 -0.038339 0.00858139)
(0.127442 -0.0338817 0.0342774)
(0.0206867 -0.0222123 0.0157652)
(0.0931676 -0.0180032 0.0277189)
(0.0444395 -0.00939504 0.0200838)
(0.0804109 -0.00359167 0.0250047)
(0.0564555 0.00361528 0.0216244)
(0.0794836 0.0101611 0.0238035)
(0.0585498 0.0164913 0.0208974)
(0.0873995 0.0233514 0.0227817)
(0.0497749 0.0294137 0.0190457)
(0.104044 0.0356452 0.0267466)
(0.0187785 0.0421445 0.0144543)
(0.128407 0.045995 0.0359866)
(-0.0496633 0.0522599 0.00301426)
(0.154237 0.05659 0.0622505)
(-0.189146 0.0639822 -0.0111378)
(0.143996 0.0675865 0.139525)
(-0.534028 0.0733343 -0.0577611)
(-0.0865342 0.0775448 0.378745)
(-1.14791 0.0765375 -0.490491)
(0.290195 0.082915 0.322284)
(0.418131 -0.0902145 -0.26422)
(1.14801 -0.0890793 0.194286)
(0.247056 -0.0828745 -0.157486)
(0.650355 -0.0804326 0.228962)
(-0.0187576 -0.072278 -0.0194749)
(0.344887 -0.0689193 0.0989143)
(-0.0396652 -0.0581071 -0.00167232)
(0.20001 -0.0536944 0.0512065)
(-0.00597142 -0.0427673 0.00944274)
(0.131037 -0.0360797 0.0339414)
(0.0284263 -0.0250042 0.0162813)
(0.0991119 -0.0192377 0.0280559)
(0.0520833 -0.0107316 0.0206631)
(0.0870582 -0.00436196 0.0254303)
(0.0644311 0.00374485 0.0223746)
(0.0857184 0.00986053 0.0238339)
(0.0670931 0.0184455 0.0220781)
(0.0925342 0.0235808 0.0223886)
(0.0593124 0.0330861 0.0203548)
(0.108415 0.0366388 0.0261112)
(0.0308763 0.0477415 0.0156162)
(0.133695 0.0486738 0.0351944)
(-0.037256 0.0600222 0.00466314)
(0.159077 0.0614809 0.0609785)
(-0.176908 0.0725796 -0.00944617)
(0.15 0.0749107 0.138539)
(-0.524432 0.0833295 -0.0556887)
(-0.0807376 0.0877838 0.377384)
(-1.14304 0.0880194 -0.488654)
(0.291641 0.0948488 0.321448)
(0.419835 -0.102109 -0.264469)
(1.15088 -0.101059 0.192901)
(0.250978 -0.0925779 -0.15429)
(0.651963 -0.0909008 0.228191)
(-0.0120851 -0.0788147 -0.016609)
(0.345983 -0.0771801 0.0974081)
(-0.0296087 -0.0619121 0.000524209)
(0.201675 -0.0596698 0.0498908)
(0.0040021 -0.0446902 0.0109575)
(0.132721 -0.0401217 0.0331792)
(0.0390462 -0.0263344 0.0171912)
(0.104246 -0.021629 0.0273757)
(0.0614404 -0.0115335 0.0208104)
(0.0941565 -0.00494924 0.0262942)
(0.0728024 0.00340564 0.0223568)
(0.093324 0.0109053 0.0250781)
(0.0743841 0.018184 0.0214222)
(0.100614 0.0264352 0.0241803)
(0.0665889 0.0335242 0.0198196)
(0.116117 0.0408467 0.0273204)
(0.04016 0.049487 0.015518)
(0.142031 0.0546122 0.0353194)
(-0.0256572 0.0650962 0.00635452)
(0.167536 0.068524 0.0598572)
(-0.164074 0.0796738 -0.00840812)
(0.15863 0.0835162 0.137321)
(-0.51314 0.0935655 -0.053632)
(-0.0729436 0.0996278 0.375649)
(-1.13694 0.101143 -0.486466)
(0.293612 0.108865 0.320285)
(0.421949 -0.115595 -0.264774)
(1.15442 -0.114483 0.191092)
(0.254448 -0.105006 -0.151527)
(0.654746 -0.101871 0.227181)
(-0.0060579 -0.0887132 -0.0145845)
(0.34944 -0.0846058 0.0955465)
(-0.0207466 -0.0691199 0.00197711)
(0.206786 -0.062927 0.0483669)
(0.0130246 -0.0482326 0.0118676)
(0.138197 -0.0411955 0.0325603)
(0.0489469 -0.0286687 0.0179665)
(0.111602 -0.0220986 0.0269311)
(0.0706475 -0.0124394 0.0215863)
(0.101975 -0.00541113 0.0258747)
(0.081676 0.00351059 0.0231222)
(0.100748 0.0105955 0.0249256)
(0.0837322 0.0201258 0.0228033)
(0.106814 0.0262006 0.0241892)
(0.0767048 0.0367136 0.021004)
(0.121587 0.0418648 0.0268968)
(0.0529097 0.0546536 0.0168015)
(0.14797 0.0576501 0.0349647)
(-0.00979093 0.0729462 0.00939439)
(0.175127 0.0741499 0.0585251)
(-0.14723 0.0891637 -0.00648194)
(0.167842 0.0924886 0.135789)
(-0.49838 0.105857 -0.0503972)
(-0.0633887 0.113385 0.373428)
(-1.12912 0.116728 -0.483464)
(0.296126 0.125752 0.318782)
(0.424761 -0.131301 -0.265242)
(1.15883 -0.130518 0.188566)
(0.26031 -0.11652 -0.145767)
(0.65585 -0.115247 0.225846)
(0.00364785 -0.0960736 -0.00955643)
(0.350546 -0.094374 0.0931133)
(-0.00749115 -0.0725133 0.00503546)
(0.207677 -0.0681395 0.0469395)
(0.0280109 -0.0470233 0.0138502)
(0.142906 -0.0437296 0.0318961)
(0.0620202 -0.0291702 0.0190246)
(0.118201 -0.0236786 0.0265783)
(0.0818588 -0.0126539 0.0220787)
(0.109404 -0.00607604 0.0263443)
(0.0911737 0.00325501 0.0233066)
(0.108754 0.0109802 0.0256756)
(0.092132 0.0195054 0.0227125)
(0.114832 0.0276838 0.0253365)
(0.0853665 0.0367806 0.0210342)
(0.129158 0.0444478 0.0274966)
(0.0639909 0.0561044 0.0171661)
(0.155058 0.0621272 0.0347832)
(0.00749778 0.0785978 0.00976317)
(0.185388 0.0805142 0.0565209)
(-0.128088 0.0980911 -0.00550029)
(0.178159 0.103466 0.132458)
(-0.47826 0.119513 -0.0464031)
(-0.0509883 0.128698 0.370315)
(-1.11799 0.135219 -0.479295)
(0.299503 0.146234 0.316747)
(0.428381 -0.149207 -0.265848)
(1.1641 -0.148456 0.185258)
(0.264733 -0.131736 -0.140904)
(0.658721 -0.12907 0.224295)
(0.0125551 -0.107524 -0.00626652)
(0.355172 -0.102422 0.0905754)
(0.0048681 -0.0793948 0.00665782)
(0.212945 -0.0706588 0.0456733)
(0.0426713 -0.0500316 0.0147511)
(0.151625 -0.0435465 0.0314806)
(0.0743783 -0.030267 0.0199106)
(0.127307 -0.0227553 0.0266189)
(0.0919787 -0.0129455 0.0228086)
(0.11827 -0.00516656 0.0263963)
(0.10015 0.00360096 0.0239685)
(0.116678 0.0111623 0.0259805)
(0.101376 0.0206408 0.0237139)
(0.121714 0.0277135 0.025761)
(0.0954811 0.0386518 0.0220676)
(0.135649 0.0453814 0.0275045)
(0.0768646 0.0592798 0.0183439)
(0.161561 0.064962 0.0344405)
(0.0269136 0.0842014 0.0109041)
(0.195808 0.0868648 0.0546832)
(-0.104719 0.109266 -0.00277295)
(0.191253 0.114459 0.12847)
(-0.452594 0.134723 -0.0413434)
(-0.0334705 0.147148 0.366317)
(-1.1036 0.15692 -0.47379)
(0.304371 0.171288 0.314103)
(0.433361 -0.170613 -0.266892)
(1.17 -0.171006 0.180637)
(0.273634 -0.143168 -0.128575)
(0.656888 -0.147114 0.221508)
(0.0285902 -0.114157 0.000993907)
(0.356162 -0.11335 0.0864224)
(0.0246108 -0.0807359 0.00979329)
(0.216226 -0.0752746 0.0437629)
(0.0624821 -0.0500752 0.0163457)
(0.159018 -0.0452319 0.0307077)
(0.0899349 -0.0293872 0.0210706)
(0.134954 -0.023655 0.0270069)
(0.104341 -0.011929 0.0236823)
(0.125519 -0.00582118 0.0265942)
(0.110159 0.00380992 0.0245875)
(0.123941 0.0107092 0.0262799)
(0.110185 0.0197621 0.0242218)
(0.129032 0.0273783 0.026368)
(0.105027 0.0378504 0.0226363)
(0.142594 0.0452733 0.0275198)
(0.0898907 0.0596364 0.0191764)
(0.168097 0.0657833 0.0338885)
(0.0479319 0.0876557 0.01222)
(0.204695 0.0904761 0.0523662)
(-0.0742297 0.12115 0.00146024)
(0.205896 0.122655 0.123268)
(-0.415701 0.152788 -0.0343909)
(-0.0111779 0.165772 0.360421)
(-1.07986 0.183624 -0.464025)
(0.310576 0.201963 0.310558)
(0.439932 -0.194507 -0.26831)
(1.17437 -0.196095 0.174922)
(0.277598 -0.159965 -0.118986)
(0.657182 -0.16508 0.217798)
(0.0445721 -0.124557 0.00602701)
(0.362303 -0.118192 0.0827151)
(0.0453923 -0.0805429 0.0110328)
(0.225161 -0.0732778 0.0425139)
(0.0819921 -0.0491319 0.0174027)
(0.169806 -0.0414707 0.0306082)
(0.104342 -0.0270785 0.0220426)
(0.14487 -0.0193302 0.0275848)
(0.114737 -0.0097944 0.0244801)
(0.134252 -0.0023119 0.0272161)
(0.118531 0.00565149 0.0252491)
(0.131443 0.0127991 0.0271048)
(0.118457 0.0213027 0.0250517)
(0.135621 0.0283011 0.0272056)
(0.114613 0.0388853 0.0237063)
(0.149163 0.0462296 0.0278312)
(0.102839 0.0607966 0.0204828)
(0.175313 0.0680541 0.0337351)
(0.068375 0.0902862 0.0138616)
(0.215079 0.095872 0.0504846)
(-0.0405 0.130862 0.00641818)
(0.226237 0.133512 0.117222)
(-0.36816 0.170636 -0.026509)
(0.0249943 0.186443 0.352443)
(-1.04588 0.209538 -0.451893)
(0.322052 0.235963 0.305562)
(0.447898 -0.221854 -0.270755)
(1.17357 -0.230202 0.168856)
(0.291739 -0.165564 -0.0871835)
(0.643737 -0.193937 0.210086)
(0.0763693 -0.128504 0.0175238)
(0.358746 -0.129055 0.0759149)
(0.0826438 -0.0751873 0.0140104)
(0.232107 -0.0743809 0.039778)
(0.108383 -0.0451233 0.0191045)
(0.178227 -0.0401891 0.0293563)
(0.121777 -0.0234755 0.0232197)
(0.152588 -0.018306 0.0277565)
(0.127021 -0.00717363 0.0253177)
(0.140639 -0.00206773 0.0272426)
(0.127939 0.00675695 0.0259702)
(0.1372 0.0120765 0.0271442)
(0.126935 0.0207154 0.0257936)
(0.141082 0.0264836 0.0274838)
(0.124409 0.0372766 0.024659)
(0.154113 0.0431507 0.0282926)
(0.117124 0.0590484 0.0218559)
(0.179555 0.0637265 0.03296)
(0.092366 0.0903254 0.0160942)
(0.218849 0.0920087 0.0475686)
(0.00588103 0.139383 0.00916005)
(0.241572 0.134358 0.10712)
(-0.29439 0.19423 -0.012523)
(0.0718278 0.199218 0.3384)
(-0.980561 0.24036 -0.423703)
(0.335588 0.272146 0.30025)
(0.451658 -0.241424 -0.272578)
(1.15012 -0.271555 0.164083)
(0.290846 -0.188899 -0.0697416)
(0.63864 -0.222547 0.198463)
(0.112862 -0.137548 0.0225514)
(0.368475 -0.125644 0.0702967)
(0.119382 -0.0699927 0.0148167)
(0.245798 -0.0620587 0.0384508)
(0.132446 -0.0354339 0.0202436)
(0.189271 -0.0281044 0.0296522)
(0.13688 -0.0140012 0.0242649)
(0.161097 -0.00780052 0.0285029)
(0.136681 0.000686333 0.0261954)
(0.147566 0.0063577 0.0281081)
(0.135011 0.0128833 0.0267646)
(0.143004 0.0182782 0.0281415)
(0.133617 0.0250672 0.0266934)
(0.146182 0.0304907 0.028387)
(0.132506 0.0395044 0.0258771)
(0.158998 0.0453548 0.0289927)
(0.129034 0.0590825 0.0234913)
(0.184887 0.0650443 0.0329665)
(0.113101 0.0882493 0.0181116)
(0.226053 0.0928146 0.0455262)
(0.050025 0.135929 0.0106024)
(0.263329 0.134532 0.095499)
(-0.201684 0.1996 -0.00215786)
(0.149887 0.193123 0.313063)
(-0.866151 0.231531 -0.393547)
(0.371604 0.279118 0.290855)
(0.41333 -0.209541 -0.271999)
(1.08 -0.341036 0.156102)
(0.330351 -0.197229 0.0129854)
(0.603172 -0.277778 0.170132)
(0.191683 -0.126819 0.0311646)
(0.366284 -0.132829 0.0540973)
(0.179469 -0.0580037 0.0160123)
(0.251188 -0.0574643 0.0307447)
(0.165241 -0.0237354 0.0199798)
(0.194705 -0.0219346 0.0264082)
(0.15463 -0.00546417 0.0229541)
(0.165813 -0.00295086 0.0255665)
(0.147072 0.00636404 0.0243416)
(0.151436 0.00922581 0.0254417)
(0.142242 0.0160176 0.0248333)
(0.146161 0.0189213 0.0255118)
(0.140203 0.025712 0.024882)
(0.148578 0.0284967 0.0259023)
(0.140844 0.0377588 0.024431)
(0.159899 0.0397346 0.0267107)
(0.142578 0.0552455 0.0229661)
(0.183205 0.0548003 0.029097)
(0.139181 0.0831393 0.0196381)
(0.221568 0.0765098 0.0383521)
(0.107561 0.131277 0.0156213)
(0.267741 0.11011 0.0747862)
(-0.0570815 0.211565 0.0208632)
(0.234852 0.161636 0.249065)
(-0.618979 0.207814 -0.299478)
(0.42032 0.220434 0.28109)
(0.216686 0.236462 -0.274914)
(0.808862 -0.521356 0.0682984)
(0.333817 -0.380411 -0.0295637)
(0.645582 -0.315391 0.123478)
(0.280774 -0.129116 0.00513914)
(0.399796 -0.0858043 0.0333801)
(0.225489 -0.0268244 0.0010537)
(0.267739 -0.015457 0.0157772)
(0.188144 0.00619329 0.00622519)
(0.20391 0.0106024 0.0123117)
(0.167134 0.0204878 0.00893798)
(0.172028 0.0235256 0.0113256)
(0.154667 0.0289438 0.0101454)
(0.156205 0.0316749 0.0112331)
(0.147624 0.03548 0.0106417)
(0.150062 0.0380625 0.0114218)
(0.145055 0.0419147 0.0107997)
(0.151783 0.0444509 0.0118227)
(0.146506 0.0497593 0.0106329)
(0.162408 0.0523109 0.0127203)
(0.15115 0.0610991 0.00968439)
(0.184997 0.0632475 0.0151188)
(0.155078 0.0792928 0.00703803)
(0.224532 0.0789149 0.0232191)
(0.148654 0.109099 0.00260367)
(0.290421 0.0935933 0.0499792)
(0.0984985 0.142755 0.00299557)
(0.410411 0.0560298 0.149628)
(-0.0876154 -0.0893561 -0.239012)
(0.767885 -0.239314 0.168567)
(0.187845 2.8831 -0.369366)
(0.278966 -1.41124 0.105263)
(0.53663 -0.702918 0.0199952)
(0.751763 -0.333911 0.0331794)
(0.473706 -0.0683108 0.0185883)
(0.415536 -0.044744 0.0295534)
(0.287486 0.0216911 0.0264801)
(0.264597 0.0164161 0.030851)
(0.210113 0.0403872 0.0297954)
(0.199672 0.0367513 0.0317754)
(0.174649 0.0465752 0.031433)
(0.16844 0.0454286 0.0323163)
(0.156174 0.0501792 0.0321832)
(0.15263 0.0501598 0.0325846)
(0.146614 0.0531553 0.0324552)
(0.145867 0.053336 0.0326901)
(0.143288 0.0563654 0.032435)
(0.146263 0.0560357 0.0326759)
(0.145495 0.0607767 0.0322653)
(0.154285 0.0587221 0.0326025)
(0.153171 0.0677399 0.0315718)
(0.171928 0.0615375 0.0325572)
(0.165362 0.0798918 0.0300842)
(0.203763 0.0643843 0.032924)
(0.183103 0.101919 0.0270924)
(0.275733 0.0671097 0.0348768)
(0.247283 0.142821 0.018041)
(0.591476 0.0402428 0.0455778)
(0.931889 -0.256595 -0.0118376)
(2.99095 -1.44107 0.410314)
(0.553106 -0.00956763 -0.380874)
(0.500434 -0.0107527 1.03604)
(-0.592016 -0.00417495 -0.907767)
(0.267928 -0.0132812 0.594422)
(-0.337267 -0.000345241 -0.510035)
(0.553521 -0.0120618 -0.380987)
(0.500443 -0.0132703 1.0349)
(-0.591827 -0.007388 -0.904524)
(0.268145 -0.0155392 0.589376)
(-0.336145 -0.00313686 -0.504037)
(0.170287 -0.0168961 0.341528)
(0.554116 -0.0150959 -0.381228)
(0.503676 -0.0150471 1.03455)
(-0.594765 -0.0126168 -0.904121)
(0.272395 -0.0152289 0.588454)
(-0.338682 -0.00993123 -0.502322)
(0.174347 -0.0146442 0.340444)
(-0.175754 -0.00621508 -0.279139)
(0.118149 -0.014338 0.192894)
(0.554015 -0.0177443 -0.381254)
(0.50236 -0.0177612 1.0346)
(-0.592273 -0.0165952 -0.903206)
(0.270997 -0.0173965 0.586956)
(-0.335688 -0.0139851 -0.500813)
(0.17404 -0.0164165 0.336921)
(-0.174413 -0.0097979 -0.278028)
(0.122126 -0.0151911 0.188458)
(-0.0826041 -0.00539862 -0.152345)
(0.083711 -0.0135762 0.10417)
(-0.0276736 -0.00232116 -0.0831016)
(0.0567583 -0.0105473 0.0592993)
(0.00622914 -2.50692e-05 -0.04589)
(0.0407396 -0.00781199 0.0378721)
(0.0276701 0.00297742 -0.0311576)
(0.554253 -0.0213517 -0.381495)
(0.505413 -0.0202707 1.03526)
(-0.59442 -0.0218568 -0.904623)
(0.275139 -0.0182323 0.589436)
(-0.337684 -0.0203423 -0.502689)
(0.178261 -0.0157348 0.342133)
(-0.174395 -0.0164307 -0.27788)
(0.122316 -0.0139437 0.192258)
(-0.0787344 -0.0107114 -0.150773)
(0.0832294 -0.0128434 0.104446)
(-0.0240455 -0.00530688 -0.0794239)
(0.0570664 -0.0109812 0.0577842)
(0.00896206 -0.000731766 -0.0430421)
(0.0421487 -0.00858731 0.0393062)
(0.0291126 0.00290601 -0.0342392)
(0.0288342 -0.00533138 0.0378532)
(0.553716 -0.0244632 -0.381461)
(0.50314 -0.0235728 1.03621)
(-0.590133 -0.0264025 -0.906202)
(0.27262 -0.0206067 0.590818)
(-0.333292 -0.0255406 -0.505827)
(0.177449 -0.0171516 0.342915)
(-0.17268 -0.0222674 -0.282617)
(0.127365 -0.0142827 0.192277)
(-0.0812896 -0.0161241 -0.153399)
(0.0888548 -0.0122661 0.104349)
(-0.0255921 -0.00933288 -0.0809564)
(0.0613033 -0.00978834 0.0573622)
(0.00878568 -0.00383458 -0.0405919)
(0.0444544 -0.00681965 0.033823)
(0.0310241 0.000519801 -0.0251323)
(0.0308066 -0.00254882 0.0270613)
(0.0492475 0.00414903 -0.0286365)
(0.553701 -0.0288234 -0.381706)
(0.505644 -0.0275959 1.03733)
(-0.591356 -0.0304574 -0.907882)
(0.276151 -0.0245814 0.594192)
(-0.334348 -0.0289707 -0.508454)
(0.181136 -0.0211095 0.349183)
(-0.171577 -0.0248096 -0.284899)
(0.127837 -0.0175662 0.198601)
(-0.0764969 -0.0193671 -0.153908)
(0.0895981 -0.0139559 0.107115)
(-0.0214205 -0.0115598 -0.0775866)
(0.0624398 -0.0110428 0.0563388)
(0.0120515 -0.0049007 -0.0346195)
(0.0465569 -0.00754029 0.0349563)
(0.0334387 0.000689826 -0.0260243)
(0.0325308 -0.00308374 0.0317422)
(0.0521475 0.0055511 -0.0373497)
(0.0141613 0.00254202 0.045648)
(0.553099 -0.0327495 -0.381693)
(0.503674 -0.0318051 1.03872)
(-0.586977 -0.0353944 -0.910649)
(0.274274 -0.027824 0.597035)
(-0.329857 -0.0344157 -0.513294)
(0.181079 -0.0229885 0.352331)
(-0.169017 -0.0306753 -0.290723)
(0.132114 -0.0183736 0.201087)
(-0.0774028 -0.0238732 -0.158884)
(0.0960952 -0.0150187 0.109735)
(-0.0224546 -0.0147604 -0.081752)
(0.0677563 -0.0114857 0.0601493)
(0.0123734 -0.00689791 -0.0356006)
(0.05002 -0.0071319 0.0317913)
(0.0355009 -0.000739684 -0.0199)
(0.0356759 -0.00123052 0.0215695)
(0.0548226 0.0046025 -0.0229642)
(0.0169068 0.00586247 0.0279583)
(0.079578 0.00995567 -0.0482211)
(-0.0114322 0.013607 0.0701197)
(0.119532 0.0157533 -0.110922)
(0.553041 -0.0379222 -0.38195)
(0.505748 -0.0373284 1.03974)
(-0.587391 -0.0388152 -0.911788)
(0.277363 -0.0344433 0.599363)
(-0.329658 -0.0360547 -0.515139)
(0.184518 -0.0305454 0.356517)
(-0.166796 -0.0307321 -0.29304)
(0.133997 -0.0257514 0.206235)
(-0.0727643 -0.0239975 -0.161084)
(0.0980896 -0.020299 0.114029)
(-0.0176523 -0.0160089 -0.0821559)
(0.0700459 -0.0140297 0.0623073)
(0.0164691 -0.00868645 -0.0358985)
(0.0526308 -0.00785891 0.0346072)
(0.0393437 -0.00147685 -0.0220935)
(0.037863 -0.00149274 0.0262117)
(0.0591835 0.00562441 -0.0297237)
(0.0195575 0.00578757 0.0386029)
(0.0839276 0.0128439 -0.0578775)
(-0.0080358 0.0136294 0.0804054)
(0.123246 0.0203668 -0.120458)
(-0.0495147 0.0218247 0.160373)
(0.183424 0.0269736 -0.228451)
(-0.10874 0.0288033 0.290227)
(0.28562 0.0321773 -0.395427)
(-0.212325 0.0346017 0.516397)
(0.469748 0.0367914 -0.63371)
(-0.433566 0.0384668 0.994007)
(0.62377 0.0399433 -0.815292)
(-0.633942 0.038994 0.572045)
(0.552688 -0.0429405 -0.382046)
(0.505052 -0.0427465 1.04106)
(-0.584141 -0.0439448 -0.914207)
(0.277321 -0.039339 0.60174)
(-0.325957 -0.0408956 -0.518884)
(0.186057 -0.0344642 0.359037)
(-0.163728 -0.0352548 -0.296652)
(0.138201 -0.0286736 0.207676)
(-0.0714925 -0.0273724 -0.163188)
(0.103472 -0.0228011 0.113905)
(-0.0159708 -0.0185522 -0.0815589)
(0.0748989 -0.0156702 0.0601671)
(0.0186687 -0.0100379 -0.0335875)
(0.0571729 -0.0083368 0.0317743)
(0.041885 -0.00208362 -0.0174532)
(0.0427694 -0.000563773 0.020061)
(0.06205 0.00488387 -0.0203496)
(0.0241812 0.00867852 0.0255866)
(0.0872169 0.0126481 -0.04639)
(-0.00373785 0.0180856 0.0678884)
(0.127405 0.0213356 -0.110071)
(-0.0454793 0.0260687 0.150751)
(0.186837 0.0301849 -0.220517)
(-0.105628 0.0325828 0.283509)
(0.288684 0.0372923 -0.39026)
(-0.210058 0.0384382 0.511868)
(0.472574 0.0427625 -0.630956)
(-0.432671 0.0430223 0.991776)
(0.625916 0.0459802 -0.814055)
(-0.633853 0.0443747 0.572163)
(0.552792 -0.049063 -0.382361)
(0.507313 -0.0494894 1.04177)
(-0.584192 -0.0479724 -0.91453)
(0.280769 -0.047196 0.602312)
(-0.324803 -0.0430401 -0.519116)
(0.189931 -0.0428762 0.360036)
(-0.160374 -0.0361795 -0.296898)
(0.141269 -0.0360691 0.209278)
(-0.0662999 -0.0281239 -0.164156)
(0.106398 -0.02784 0.116292)
(-0.010218 -0.0197811 -0.08318)
(0.0783616 -0.0185858 0.0636908)
(0.0239289 -0.0110389 -0.0382368)
(0.0604792 -0.00958687 0.0364323)
(0.0471207 -0.00215397 -0.0206332)
(0.0448163 -0.000428677 0.0238606)
(0.0683747 0.00725595 -0.0281123)
(0.0273819 0.00887692 0.0386446)
(0.0931154 0.0169061 -0.0582427)
(0.000789678 0.0179757 0.0802859)
(0.130877 0.0270026 -0.120428)
(-0.0402472 0.0260297 0.160266)
(0.189326 0.0365883 -0.22773)
(-0.100844 0.0341252 0.289838)
(0.290565 0.0438452 -0.394595)
(-0.205692 0.0418689 0.514945)
(0.473855 0.0494343 -0.632962)
(-0.429798 0.0480314 0.993098)
(0.626334 0.0526732 -0.813943)
(-0.633147 0.0506814 0.57234)
(0.552823 -0.0554206 -0.382626)
(0.508197 -0.0564313 1.04272)
(-0.582132 -0.0534347 -0.915658)
(0.282706 -0.0542218 0.602903)
(-0.321413 -0.0471953 -0.520153)
(0.192788 -0.0495382 0.359996)
(-0.155834 -0.0390823 -0.297223)
(0.145679 -0.041821 0.208731)
(-0.0624752 -0.0300366 -0.164114)
(0.11133 -0.032037 0.115934)
(-0.00632431 -0.0215479 -0.0823477)
(0.083388 -0.0209787 0.06312)
(0.0277817 -0.0124383 -0.0356492)
(0.0659388 -0.00993396 0.0324303)
(0.0510553 -0.00246568 -0.0173171)
(0.0521496 0.000791761 0.0203454)
(0.0713144 0.00792911 -0.0199277)
(0.0339016 0.0107313 0.0271552)
(0.0960829 0.0187353 -0.0466869)
(0.00654552 0.0204191 0.0677633)
(0.134992 0.0297908 -0.109612)
(-0.0354563 0.0291015 0.149425)
(0.194123 0.0410976 -0.218663)
(-0.0975427 0.0375617 0.281749)
(0.295268 0.0501725 -0.388288)
(-0.203178 0.0459971 0.509081)
(0.478089 0.0568091 -0.629419)
(-0.428781 0.0534322 0.989972)
(0.629609 0.0602449 -0.81221)
(-0.633095 0.0574357 0.572427)
(0.55324 -0.0628536 -0.383082)
(0.511434 -0.064455 1.04309)
(-0.582387 -0.0589961 -0.915027)
(0.287514 -0.0628306 0.601449)
(-0.319741 -0.0510402 -0.518129)
(0.197992 -0.0578306 0.357379)
(-0.151275 -0.0413985 -0.294085)
(0.149678 -0.0488174 0.205835)
(-0.0556605 -0.0323927 -0.161352)
(0.114475 -0.0360868 0.113574)
(0.00126076 -0.0236083 -0.0802059)
(0.0872474 -0.0235075 0.0614163)
(0.035117 -0.0131544 -0.0348043)
(0.0703767 -0.0111828 0.0348581)
(0.0578674 -0.00139845 -0.0204951)
(0.0551887 0.000634367 0.0261644)
(0.0782503 0.0104561 -0.0303655)