/*--------------------------------*- C++ -*----------------------------------*\
  =========                 |
  \\      /  F ield         | OpenFOAM: The Open Source CFD Toolbox
   \\    /   O peration     | Website:  https://openfoam.org
    \\  /    A nd           | Version:  10
     \\/     M anipulation  |
\*---------------------------------------------------------------------------*/
FoamFile
{
    format      ascii;
    class       volVectorField;
    location    "0.1";
    object      U_0;
}
// * * * * * * * * * * * * * * * * * * * * * * * * * * * * * * * * * * * * * //

dimensions      [0 1 -1 0 0 0 0];

internalField   nonuniform List<vector> 
116800
(
(0.41675 -0.00830292 -0.265721)
(1.14609 -0.00803794 0.198171)
(0.238921 -0.00452134 -0.160369)
(0.631183 -0.00670854 0.229005)
(-0.0396247 -0.00412319 -0.0235412)
(0.417112 -0.0110324 -0.265792)
(1.14672 -0.010572 0.19788)
(0.239961 -0.00798888 -0.159707)
(0.631133 -0.00888646 0.228458)
(-0.038417 -0.00796285 -0.0230378)
(0.317979 -0.00838212 0.0987847)
(0.417404 -0.0140264 -0.265843)
(1.14715 -0.0135806 0.197758)
(0.241226 -0.0109383 -0.159126)
(0.63046 -0.0122049 0.228504)
(-0.0360058 -0.0100373 -0.0221981)
(0.31623 -0.0115029 0.0987682)
(-0.0716736 -0.00726309 -0.00666531)
(0.163443 -0.00992047 0.0508908)
(0.417542 -0.0170698 -0.26584)
(1.14745 -0.0163617 0.197658)
(0.24112 -0.0153129 -0.159348)
(0.631483 -0.0145896 0.228339)
(-0.0361924 -0.01514 -0.0227309)
(0.318003 -0.0127201 0.09837)
(-0.0717146 -0.0124432 -0.00734152)
(0.165608 -0.0098257 0.0505177)
(-0.0462852 -0.00874465 0.00405683)
(0.0961015 -0.0075908 0.031721)
(-0.0175363 -0.00572194 0.0112803)
(0.0636719 -0.00502485 0.0232932)
(-0.000715444 -0.00283996 0.0137226)
(0.0486663 -0.00199846 0.0196053)
(0.00735577 0.0012327 0.015771)
(0.417619 -0.0205515 -0.265827)
(1.14755 -0.0199155 0.197752)
(0.241647 -0.0183782 -0.159037)
(0.631465 -0.0185523 0.228871)
(-0.0344992 -0.0170755 -0.0220325)
(0.317613 -0.0166307 0.0992333)
(-0.0686174 -0.0129002 -0.00638861)
(0.164608 -0.0133679 0.0511024)
(-0.042591 -0.00923701 0.00498982)
(0.0953946 -0.00989064 0.031849)
(-0.0139833 -0.00594374 0.0120534)
(0.0632467 -0.00620771 0.0233503)
(0.0020644 -0.00252398 0.0147075)
(0.0476713 -0.00214935 0.0199068)
(0.0106135 0.00185572 0.0157542)
(0.0447867 0.00160083 0.0192824)
(0.417569 -0.0241124 -0.265763)
(1.14757 -0.0232095 0.197798)
(0.240531 -0.0233973 -0.160099)
(0.633451 -0.021307 0.22894)
(-0.0358979 -0.0229517 -0.023508)
(0.321242 -0.0181734 0.0993392)
(-0.0700742 -0.0190132 -0.00775113)
(0.169243 -0.0136324 0.0513616)
(-0.0429903 -0.0135246 0.00435853)
(0.0988561 -0.0098156 0.0321369)
(-0.0130205 -0.00840489 0.0118641)
(0.0654181 -0.00578458 0.0237603)
(0.00363491 -0.00337751 0.0153808)
(0.0481916 -0.00164215 0.0198027)
(0.013357 0.00185102 0.0168237)
(0.0454618 0.00255454 0.0186103)
(0.0140093 0.00582538 0.0167406)
(0.41755 -0.0282611 -0.265714)
(1.14757 -0.0274762 0.19797)
(0.240635 -0.0264943 -0.15975)
(0.634062 -0.0258886 0.229612)
(-0.0347977 -0.0247963 -0.0227538)
(0.322017 -0.0229082 0.100426)
(-0.067836 -0.0196163 -0.00671699)
(0.170155 -0.0180259 0.0523742)
(-0.0400374 -0.0143848 0.00523472)
(0.100303 -0.0126972 0.0326626)
(-0.0100816 -0.00894192 0.0127673)
(0.0664398 -0.00702931 0.0240447)
(0.00665065 -0.00289013 0.0169513)
(0.0489404 -0.00156268 0.0202289)
(0.0164579 0.00217839 0.0173105)
(0.0466663 0.0034441 0.0193529)
(0.0172529 0.00649532 0.0163558)
(0.052984 0.00811639 0.0207787)
(0.417485 -0.0325649 -0.26564)
(1.14758 -0.0315546 0.198037)
(0.239383 -0.0318144 -0.16092)
(0.63643 -0.0292759 0.229779)
(-0.0362007 -0.0305725 -0.0242149)
(0.326169 -0.0251467 0.100763)
(-0.069171 -0.0252902 -0.00768922)
(0.175575 -0.0192128 0.0528968)
(-0.0403706 -0.0187058 0.00459231)
(0.105099 -0.0135315 0.0332522)
(-0.00918942 -0.0116408 0.0125228)
(0.0693853 -0.00735747 0.0250329)
(0.00893576 -0.00400718 0.0172415)
(0.0508266 -0.0015596 0.0204755)
(0.0197736 0.00223301 0.0183316)
(0.0483766 0.00399126 0.0191078)
(0.021389 0.00818971 0.0181661)
(0.0545271 0.00918779 0.0191421)
(0.00840994 0.0137546 0.0171426)
(0.0674505 0.0145351 0.0246083)
(-0.0255061 0.0175528 0.0112138)
(0.417535 -0.0375183 -0.265598)
(1.14773 -0.0366372 0.198125)
(0.239494 -0.0354643 -0.160512)
(0.637545 -0.0344212 0.230246)
(-0.035187 -0.0330071 -0.0235383)
(0.327716 -0.0303482 0.101561)
(-0.0671809 -0.0267624 -0.00661731)
(0.177774 -0.0240621 0.053735)
(-0.0374549 -0.0200953 0.00522632)
(0.107759 -0.0170221 0.0339246)
(-0.00635781 -0.0127902 0.0130276)
(0.0712521 -0.0091755 0.0256181)
(0.0125028 -0.00430492 0.0176896)
(0.0532928 -0.00153909 0.0212581)
(0.023309 0.00235223 0.0187692)
(0.0511574 0.00509852 0.0200874)
(0.0249683 0.00876006 0.0181978)
(0.0580916 0.0118735 0.0205031)
(0.0124154 0.0150313 0.0167557)
(0.07245 0.017895 0.0254545)
(-0.022501 0.0200186 0.0107866)
(0.0944999 0.023762 0.0374712)
(-0.0877636 0.0257838 0.001065)
(0.12688 0.0294487 0.0663478)
(-0.225409 0.0303596 -0.0140576)
(0.116122 0.0332453 0.141815)
(-0.561598 0.0333608 -0.0606384)
(-0.109745 0.0358174 0.380821)
(-1.16722 0.0318083 -0.494346)
(0.277597 0.0373933 0.328383)
(0.41764 -0.0427789 -0.265559)
(1.14801 -0.0417431 0.198085)
(0.238871 -0.0410588 -0.161147)
(0.639873 -0.0387539 0.230301)
(-0.0355518 -0.038464 -0.0242894)
(0.331372 -0.0337205 0.101783)
(-0.0670097 -0.0318102 -0.00679498)
(0.182531 -0.0265627 0.0539759)
(-0.0361418 -0.0239085 0.00525397)
(0.112252 -0.0190367 0.0340796)
(-0.0044238 -0.0152975 0.013539)
(0.0741987 -0.0105443 0.0256742)
(0.0160108 -0.00541367 0.0184438)
(0.0564946 -0.00191149 0.0216053)
(0.0274013 0.0025478 0.0198248)
(0.0540819 0.00538159 0.0204866)
(0.029723 0.0104094 0.0195641)
(0.0610205 0.0127446 0.0195202)
(0.0184249 0.0179822 0.0180746)
(0.0764143 0.0195092 0.0246555)
(-0.0171619 0.0239927 0.0122409)
(0.0980383 0.0261529 0.0367473)
(-0.0830387 0.0304402 0.00202715)
(0.129781 0.0325637 0.0655453)
(-0.221211 0.0357344 -0.0132536)
(0.11917 0.0373787 0.141497)
(-0.558737 0.0390179 -0.0599928)
(-0.107345 0.0408447 0.380509)
(-1.16569 0.0374567 -0.49377)
(0.27823 0.0429542 0.32817)
(0.417909 -0.0487382 -0.265557)
(1.14854 -0.0477922 0.197976)
(0.239413 -0.0457363 -0.160569)
(0.641321 -0.0444977 0.230433)
(-0.0339969 -0.0419637 -0.02359)
(0.333188 -0.0392205 0.102056)
(-0.0642003 -0.0344131 -0.00591452)
(0.185062 -0.0313761 0.0542881)
(-0.032365 -0.0260133 0.00580902)
(0.115402 -0.0224127 0.034554)
(-0.00103116 -0.01697 0.0137844)
(0.076888 -0.0121288 0.0264225)
(0.0202618 -0.00622622 0.0183197)
(0.060278 -0.00194466 0.0226646)
(0.0318408 0.00276901 0.0200959)
(0.0581158 0.00682437 0.0214092)
(0.0340128 0.0110629 0.0195098)
(0.0662887 0.0159558 0.0214393)
(0.0226022 0.0192277 0.0174741)
(0.0829184 0.023844 0.0259665)
(-0.0133716 0.0264863 0.0120781)
(0.104122 0.030718 0.0374303)
(-0.07947 0.0334468 0.00166337)
(0.134816 0.0373664 0.0655826)
(-0.217775 0.0397227 -0.0133737)
(0.123852 0.0428172 0.141497)
(-0.556223 0.0441138 -0.0599954)
(-0.103858 0.0468689 0.380296)
(-1.16428 0.0434598 -0.493343)
(0.279034 0.0490971 0.327892)
(0.418309 -0.0552285 -0.265577)
(1.14931 -0.0541822 0.197726)
(0.239778 -0.0519831 -0.160425)
(0.643498 -0.0499854 0.230329)
(-0.0329176 -0.0475714 -0.0235193)
(0.336154 -0.0437441 0.101939)
(-0.0619945 -0.0392778 -0.00551651)
(0.189 -0.0348049 0.054214)
(-0.0291952 -0.0295908 0.00626195)
(0.119726 -0.0247173 0.034663)
(0.0020826 -0.0191427 0.0141215)
(0.0803714 -0.013459 0.026787)
(0.0249513 -0.0070318 0.0191042)
(0.0643859 -0.00259107 0.0230226)
(0.0371623 0.00312915 0.020966)
(0.0623541 0.00733854 0.0220245)
(0.0398264 0.0132985 0.0207061)
(0.0700593 0.0166105 0.0208972)
(0.0298663 0.0232316 0.0188636)
(0.086981 0.0251509 0.0254472)
(-0.00584774 0.0316703 0.0144928)
(0.108 0.0329393 0.0368126)
(-0.0724229 0.0390084 0.00290154)
(0.137918 0.0407587 0.0646712)
(-0.211626 0.0460128 -0.0123123)
(0.127334 0.0477145 0.140997)
(-0.551931 0.0508362 -0.0590746)
(-0.100909 0.0530719 0.379756)
(-1.16209 0.0503956 -0.49254)
(0.279794 0.0560238 0.327557)
(0.41891 -0.0625498 -0.265636)
(1.1504 -0.0615472 0.197343)
(0.24114 -0.05802 -0.159412)
(0.6451 -0.0566821 0.230177)
(-0.0302121 -0.0521695 -0.0224824)
(0.337802 -0.0497858 0.101655)
(-0.0574341 -0.0425972 -0.00447745)
(0.191095 -0.0399268 0.0539775)
(-0.0238527 -0.0319611 0.007198)
(0.122736 -0.027933 0.0347137)
(0.00694927 -0.0201278 0.0151427)
(0.0837788 -0.0148943 0.0271345)
(0.030816 -0.00746741 0.0197994)
(0.0691801 -0.00251575 0.0239462)
(0.0427437 0.00340098 0.0212358)
(0.0677786 0.00880311 0.0230585)
(0.0449041 0.0137337 0.0201949)
(0.0762869 0.0198056 0.0226419)
(0.0349399 0.0243781 0.0182832)
(0.0937371 0.0298947 0.0267666)
(4.93109e-05 0.034548 0.0142529)
(0.115261 0.0381995 0.0372213)
(-0.0669112 0.0422865 0.00270791)
(0.143675 0.0463303 0.0643575)
(-0.206152 0.0508223 -0.0121372)
(0.132732 0.054126 0.140689)
(-0.547702 0.0572117 -0.0586572)
(-0.0967393 0.0604617 0.379235)
(-1.15982 0.0579617 -0.491782)
(0.280759 0.0638118 0.327133)
(0.4197 -0.0706885 -0.265727)
(1.15183 -0.0695994 0.196782)
(0.242575 -0.0655833 -0.158479)
(0.647313 -0.0635894 0.229809)
(-0.0276293 -0.0586407 -0.0216803)
(0.340448 -0.0553415 0.101013)
(-0.0530867 -0.0479214 -0.00363416)
(0.194408 -0.0439776 0.0534623)
(-0.0192267 -0.0359169 0.00788961)
(0.126179 -0.0300371 0.0350076)
(0.0124364 -0.0213565 0.0156165)
(0.088687 -0.0158288 0.0282535)
(0.0369504 -0.00865441 0.0202205)
(0.0744102 -0.00327164 0.0246825)
(0.0495703 0.0038083 0.0219907)
(0.0728164 0.008795 0.0231446)
(0.052448 0.0164609 0.0217194)
(0.080185 0.0200941 0.0215434)
(0.0436878 0.0287467 0.0199931)
(0.0968365 0.0308968 0.025877)
(0.0109999 0.0406107 0.0154411)
(0.119789 0.0404084 0.0362951)
(-0.0572775 0.0485867 0.00396494)
(0.147177 0.0502196 0.0632421)
(-0.197374 0.0581869 -0.0107922)
(0.137016 0.0600645 0.139974)
(-0.541296 0.0653495 -0.0572954)
(-0.092831 0.068303 0.378378)
(-1.15658 0.0667376 -0.490599)
(0.281757 0.0727214 0.32661)
(0.420754 -0.079921 -0.265867)
(1.15365 -0.0788574 0.196017)
(0.245065 -0.0732976 -0.15667)
(0.649017 -0.0717888 0.229351)
(-0.02328 -0.0643282 -0.0199407)
(0.341848 -0.0623746 0.100193)
(-0.0460838 -0.0517702 -0.00213316)
(0.195935 -0.0495802 0.0526618)
(-0.0120266 -0.0383429 0.00919446)
(0.12733 -0.0338437 0.0346217)
(0.0208806 -0.0221752 0.0162779)
(0.0930651 -0.0179467 0.0280881)
(0.0445811 -0.00936091 0.0205909)
(0.0803516 -0.00354884 0.0255165)
(0.0566256 0.00366424 0.0221259)
(0.0793918 0.0102244 0.0242827)
(0.0587239 0.016555 0.0214005)
(0.0872753 0.023425 0.0232141)
(0.0499712 0.0294881 0.0195601)
(0.103892 0.0357257 0.0271418)
(0.0189591 0.0422171 0.0150065)
(0.128132 0.046062 0.0363494)
(-0.0494575 0.0523028 0.00369134)
(0.153876 0.0566381 0.0624694)
(-0.188964 0.0640279 -0.0102625)
(0.143585 0.0676186 0.139304)
(-0.534401 0.0733672 -0.0562881)
(-0.0873971 0.0775584 0.3774)
(-1.15293 0.076529 -0.48933)
(0.283048 0.0829301 0.325945)
(0.422064 -0.0903225 -0.266043)
(1.15594 -0.089179 0.194993)
(0.247568 -0.0829551 -0.154911)
(0.65149 -0.0805063 0.228695)
(-0.0191774 -0.0723025 -0.0185363)
(0.344739 -0.0689311 0.0989009)
(-0.0395682 -0.058108 -0.000927289)
(0.199852 -0.053675 0.051441)
(-0.00573796 -0.0427607 0.0100563)
(0.130917 -0.0360328 0.0343001)
(0.028621 -0.0249536 0.0168035)
(0.0990118 -0.0191694 0.028435)
(0.052209 -0.0106814 0.0211782)
(0.0870238 -0.00430528 0.0259398)
(0.0646033 0.0037998 0.0228798)
(0.0856364 0.00992847 0.0243221)
(0.0672553 0.0185048 0.0225866)
(0.0924233 0.0236291 0.0229163)
(0.0595003 0.033152 0.0208705)
(0.108278 0.0367285 0.0265174)
(0.0310607 0.0478033 0.0161608)
(0.133466 0.0487422 0.035569)
(-0.0370831 0.0600305 0.00528718)
(0.158718 0.0615326 0.0612087)
(-0.176738 0.0726124 -0.00859397)
(0.14958 0.0749446 0.138336)
(-0.524812 0.0833544 -0.0542384)
(-0.0816198 0.0877924 0.376051)
(-1.14804 0.0880023 -0.487502)
(0.284514 0.0948555 0.325097)
(0.423762 -0.102245 -0.266294)
(1.15879 -0.101183 0.193608)
(0.251507 -0.0926916 -0.15173)
(0.653096 -0.0909891 0.227932)
(-0.0124424 -0.078855 -0.015698)
(0.34586 -0.0771685 0.0974121)
(-0.0294887 -0.061915 0.00125247)
(0.201556 -0.0596337 0.0501388)
(0.00421456 -0.0446841 0.0115592)
(0.132603 -0.0400582 0.0335493)
(0.039232 -0.0262741 0.0177218)
(0.10416 -0.021546 0.0277384)
(0.0616032 -0.0114577 0.0213283)
(0.0940961 -0.0048666 0.0267938)
(0.072968 0.0034669 0.0228733)
(0.0932529 0.0109768 0.0255733)
(0.0745525 0.0182496 0.0219449)
(0.100503 0.0265298 0.0246764)
(0.0667653 0.0336026 0.0203495)
(0.115987 0.0409408 0.0277325)
(0.0403542 0.0495606 0.0160732)
(0.141825 0.0546926 0.0356986)
(-0.0254979 0.0651321 0.00699345)
(0.167167 0.0685869 0.0600998)
(-0.163912 0.0797173 -0.00756124)
(0.158188 0.0835518 0.137138)
(-0.513529 0.0935938 -0.0521973)
(-0.0738592 0.0996286 0.374329)
(-1.14193 0.101116 -0.485323)
(0.286522 0.108866 0.323917)
(0.425872 -0.115774 -0.266602)
(1.16233 -0.114645 0.191802)
(0.255017 -0.105139 -0.148966)
(0.655874 -0.101962 0.226943)
(-0.00633918 -0.0887487 -0.0136702)
(0.349343 -0.0845994 0.0955809)
(-0.0205875 -0.0691116 0.00270697)
(0.206699 -0.062868 0.0486362)
(0.0132208 -0.0481874 0.0124951)
(0.138077 -0.0411118 0.0329493)
(0.0491317 -0.0285917 0.0185116)
(0.11152 -0.0220017 0.0273002)
(0.0708438 -0.0123605 0.0221096)
(0.101896 -0.0053337 0.026373)
(0.0818384 0.00357708 0.0236457)
(0.100678 0.0106662 0.0254302)
(0.0838861 0.0201875 0.0233293)
(0.106712 0.0262651 0.0247138)
(0.0768775 0.0367886 0.0215364)
(0.12147 0.0419619 0.0273268)
(0.0531011 0.0547254 0.0173517)
(0.147788 0.0577455 0.0353628)
(-0.00964655 0.0729962 0.0100312)
(0.174767 0.0742281 0.0587898)
(-0.147083 0.0892063 -0.00565216)
(0.167382 0.092536 0.135632)
(-0.498785 0.105894 -0.0489913)
(-0.0643444 0.11338 0.372123)
(-1.13409 0.116695 -0.482331)
(0.289069 0.125748 0.322419)
(0.42868 -0.13154 -0.267072)
(1.16674 -0.130725 0.189282)
(0.260923 -0.116696 -0.143235)
(0.657015 -0.115344 0.225624)
(0.003416 -0.0961465 -0.00864125)
(0.350521 -0.0943482 0.0931618)
(-0.00731864 -0.0725006 0.00573835)
(0.207596 -0.0680442 0.047227)
(0.0282191 -0.0469469 0.0144433)
(0.142814 -0.0436115 0.0322956)
(0.0622041 -0.0290801 0.0195827)
(0.118129 -0.0235463 0.0270245)
(0.0820241 -0.0125749 0.0226249)
(0.109349 -0.00599055 0.0268541)
(0.0913239 0.00332304 0.02384)
(0.108694 0.0110588 0.0261853)
(0.0922712 0.0195696 0.0232492)
(0.114735 0.0277624 0.025871)
(0.085527 0.0368485 0.0215772)
(0.129055 0.0445367 0.0279348)
(0.0641776 0.0561802 0.0177234)
(0.15489 0.0622356 0.0351946)
(0.0076386 0.0786667 0.0104032)
(0.185044 0.0805994 0.0568079)
(-0.127971 0.0981149 -0.00467212)
(0.177651 0.103521 0.132304)
(-0.478656 0.119552 -0.0450455)
(-0.0519913 0.128677 0.369028)
(-1.12293 0.135168 -0.478185)
(0.292483 0.146214 0.320393)
(0.432296 -0.149543 -0.26768)
(1.17204 -0.148737 0.185985)
(0.265436 -0.131952 -0.138373)
(0.65993 -0.129184 0.224092)
(0.0124401 -0.107575 -0.00536725)
(0.355191 -0.10238 0.0906489)
(0.00507677 -0.0793531 0.00735698)
(0.21286 -0.0705458 0.0459821)
(0.0428965 -0.0499292 0.0153447)
(0.151537 -0.0434198 0.0318922)
(0.0745718 -0.0301617 0.0204771)
(0.127234 -0.022657 0.0270896)
(0.0921399 -0.0128599 0.023367)
(0.118213 -0.00508491 0.0269148)
(0.100297 0.00367306 0.0245088)
(0.116616 0.0112351 0.0264988)
(0.101509 0.0207072 0.0242548)
(0.121616 0.0277903 0.0262925)
(0.0956006 0.0387154 0.0226158)
(0.135584 0.0454622 0.0279411)
(0.077048 0.0593585 0.0189004)
(0.16141 0.0650752 0.0348671)
(0.0270667 0.084278 0.0115335)
(0.19552 0.0869491 0.05498)
(-0.104654 0.109272 -0.00203775)
(0.1907 0.114507 0.12834)
(-0.452998 0.134789 -0.0400287)
(-0.0345635 0.14713 0.365054)
(-1.10851 0.156886 -0.47269)
(0.297375 0.17127 0.317763)
(0.437275 -0.171118 -0.268722)
(1.17799 -0.171411 0.181395)
(0.274462 -0.14344 -0.126126)
(0.658197 -0.147197 0.221316)
(0.0286011 -0.114175 0.00183296)
(0.356264 -0.113219 0.0865282)
(0.0248189 -0.080662 0.0104591)
(0.216171 -0.0750907 0.0441009)
(0.0626847 -0.0499413 0.0169293)
(0.15895 -0.0450599 0.0311276)
(0.0901004 -0.0292574 0.0216384)
(0.134896 -0.02355 0.0275342)
(0.104488 -0.0118384 0.0242446)
(0.125475 -0.00572262 0.0271205)
(0.110287 0.00388686 0.0251331)
(0.123892 0.0107989 0.026805)
(0.1103 0.0198324 0.0247699)
(0.128946 0.0274702 0.0268986)
(0.105116 0.0379252 0.0231995)
(0.142548 0.0453773 0.0279452)
(0.0900646 0.0597274 0.0197391)
(0.167973 0.0659142 0.0343311)
(0.0480778 0.0877415 0.0128396)
(0.20446 0.0905935 0.0527016)
(-0.0742196 0.121164 0.00219902)
(0.205314 0.122719 0.123194)
(-0.416145 0.152813 -0.0331098)
(-0.0124111 0.165733 0.359195)
(-1.08475 0.183582 -0.462983)
(0.303607 0.201949 0.314225)
(0.443827 -0.195302 -0.270143)
(1.18251 -0.196675 0.175684)
(0.278679 -0.160308 -0.116529)
(0.658632 -0.165099 0.217646)
(0.0447615 -0.124495 0.00684965)
(0.36246 -0.11797 0.082858)
(0.0456291 -0.0803777 0.0116922)
(0.2251 -0.0730525 0.0428764)
(0.0821985 -0.0489507 0.0179904)
(0.169725 -0.0412875 0.0310422)
(0.104491 -0.0269419 0.0226214)
(0.144818 -0.0192196 0.0281355)
(0.114884 -0.00969788 0.0250482)
(0.134205 -0.00221694 0.0277468)
(0.118653 0.00573578 0.0258017)
(0.131393 0.0128843 0.0276364)
(0.118568 0.0213821 0.025605)
(0.13554 0.0283908 0.0277423)
(0.114722 0.0389818 0.024269)
(0.149083 0.0463597 0.0282621)
(0.103016 0.0609079 0.0210546)
(0.175204 0.0681993 0.0341904)
(0.0685237 0.0904111 0.0144801)
(0.214886 0.0960351 0.0508605)
(-0.0405108 0.13094 0.00716617)
(0.225688 0.133629 0.117218)
(-0.368743 0.17074 -0.0253787)
(0.0234807 0.186502 0.351254)
(-1.05078 0.209636 -0.450855)
(0.314995 0.236028 0.309261)
(0.45175 -0.223161 -0.272581)
(1.18197 -0.231064 0.169613)
(0.293155 -0.166017 -0.0848787)
(0.645445 -0.193809 0.209963)
(0.0767407 -0.1283 0.0182582)
(0.358977 -0.128634 0.0761282)
(0.0828644 -0.0748965 0.0146331)
(0.232074 -0.0740313 0.0401879)
(0.108528 -0.0448851 0.0196983)
(0.178157 -0.0399197 0.0298321)
(0.121895 -0.0233112 0.0238019)
(0.152537 -0.0181425 0.0283007)
(0.127133 -0.00705914 0.0258868)
(0.140607 -0.00194238 0.0277873)
(0.128036 0.00685358 0.0265298)
(0.137166 0.0121884 0.0276888)
(0.127026 0.0208054 0.0263545)
(0.141026 0.0266006 0.028029)
(0.124505 0.0373734 0.0252309)
(0.154051 0.0432804 0.0288355)
(0.117258 0.0591675 0.0224328)
(0.179482 0.0639064 0.0334259)
(0.0924807 0.0904627 0.0166984)
(0.218691 0.0922175 0.0479891)
(0.00583551 0.139522 0.00985576)
(0.241059 0.134533 0.107243)
(-0.295135 0.194382 -0.0115138)
(0.0699776 0.199319 0.337325)
(-0.985579 0.240437 -0.422756)
(0.328379 0.27216 0.303961)
(0.455364 -0.243608 -0.274406)
(1.15915 -0.272669 0.164814)
(0.292908 -0.189283 -0.0674278)
(0.640703 -0.222006 0.198447)
(0.113412 -0.137036 0.0232791)
(0.368687 -0.125029 0.070564)
(0.119585 -0.0695555 0.0154376)
(0.245719 -0.0616703 0.038892)
(0.132561 -0.0351444 0.0208457)
(0.189175 -0.0278598 0.030158)
(0.136984 -0.0138147 0.0248522)
(0.161034 -0.00763951 0.02905)
(0.136783 0.000822459 0.0267704)
(0.147529 0.00648751 0.0286571)
(0.1351 0.0130005 0.0273309)
(0.142971 0.0183971 0.0286913)
(0.133703 0.0251796 0.02726)
(0.146136 0.0306129 0.0289379)
(0.132602 0.0396277 0.0264552)
(0.158939 0.0454993 0.0295571)
(0.12915 0.0592459 0.0240773)
(0.184835 0.0652448 0.033452)
(0.113217 0.0884589 0.0187199)
(0.225913 0.0931031 0.0459771)
(0.049961 0.136243 0.0112944)
(0.262818 0.134954 0.0957595)
(-0.202609 0.200167 -0.00118538)
(0.147659 0.193596 0.312262)
(-0.871585 0.232162 -0.392694)
(0.363811 0.279099 0.294666)
(0.416743 -0.213334 -0.273942)
(1.08999 -0.342635 0.156822)
(0.333658 -0.196984 0.0149361)
(0.605561 -0.276485 0.17022)
(0.192422 -0.12573 0.0317081)
(0.366425 -0.131868 0.0544695)
(0.179502 -0.0573684 0.0166)
(0.251067 -0.0569438 0.0312613)
(0.165217 -0.023376 0.0205792)
(0.194638 -0.0216375 0.0269593)
(0.154666 -0.00523461 0.0235338)
(0.16577 -0.00271465 0.0261233)
(0.147127 0.0065465 0.024912)
(0.151418 0.00942265 0.0259993)
(0.1423 0.0161794 0.0253976)
(0.14615 0.0191028 0.0260685)
(0.140263 0.0258659 0.0254461)
(0.148561 0.0286801 0.0264586)
(0.140911 0.0379142 0.0250014)
(0.159877 0.0399404 0.0272676)
(0.142667 0.0554204 0.0235433)
(0.183182 0.0550427 0.0296322)
(0.139255 0.0833763 0.020218)
(0.221467 0.0768443 0.0388229)
(0.107438 0.131655 0.0162355)
(0.267193 0.110602 0.0752028)
(-0.0582007 0.212248 0.0215814)
(0.232346 0.162234 0.248875)
(-0.624762 0.208793 -0.299279)
(0.411914 0.21941 0.284926)
(0.219409 0.227674 -0.277011)
(0.824355 -0.521258 0.0686865)
(0.34012 -0.377376 -0.0274254)
(0.647717 -0.312195 0.123845)
(0.281264 -0.127152 0.00562821)
(0.399561 -0.0845899 0.0337067)
(0.225368 -0.0260102 0.00154766)
(0.267503 -0.0148452 0.0161487)
(0.188084 0.00665295 0.00671086)
(0.203783 0.0109886 0.0127559)
(0.167152 0.020834 0.00941022)
(0.171974 0.0238524 0.0117756)
(0.154709 0.0292515 0.0106159)
(0.156184 0.0319773 0.0116906)
(0.147673 0.035773 0.011107)
(0.150053 0.0383565 0.0118787)
(0.145109 0.0422023 0.0112676)
(0.151769 0.0447462 0.0122822)
(0.146566 0.0500541 0.0111035)
(0.162391 0.0526191 0.0131751)
(0.151243 0.0614258 0.0101632)
(0.184979 0.0636127 0.0155693)
(0.155141 0.0797052 0.00752494)
(0.22444 0.0794297 0.0236074)
(0.148504 0.109759 0.00312028)
(0.289864 0.0945199 0.0504139)
(0.0971545 0.144217 0.00358201)
(0.407239 0.0578377 0.15004)
(-0.0958293 -0.0845982 -0.238633)
(0.757355 -0.239749 0.173605)
(0.193297 2.87135 -0.369604)
(0.286818 -1.41284 0.102492)
(0.544363 -0.692646 0.0218496)
(0.751968 -0.328768 0.0340488)
(0.473066 -0.0654404 0.019011)
(0.414904 -0.0431863 0.0298036)
(0.287146 0.0228222 0.026694)
(0.264346 0.017321 0.0310402)
(0.210015 0.0411883 0.0300014)
(0.199612 0.037517 0.0319786)
(0.17468 0.0472927 0.0316401)
(0.168466 0.0461518 0.0325221)
(0.156248 0.0508707 0.0323889)
(0.152687 0.0508636 0.0327893)
(0.146702 0.0538354 0.0326599)
(0.145934 0.054032 0.0328958)
(0.14338 0.057042 0.0326465)
(0.146333 0.056732 0.0328837)
(0.145593 0.0614581 0.0324814)
(0.154354 0.0594318 0.032815)
(0.153284 0.0684345 0.0317882)
(0.172004 0.062268 0.0327649)
(0.165467 0.0806509 0.0303034)
(0.203726 0.065175 0.0331345)
(0.18297 0.102843 0.0273394)
(0.275193 0.0680146 0.0351194)
(0.246196 0.144 0.0184168)
(0.588792 0.0406999 0.0460002)
(0.923006 -0.252416 -0.0113464)
(2.98042 -1.4445 0.409723)
(0.555196 -0.00959482 -0.381628)
(0.50347 -0.0107765 1.03869)
(-0.593209 -0.00421938 -0.910392)
(0.269513 -0.013295 0.595605)
(-0.337287 -0.000403051 -0.510568)
(0.555612 -0.012093 -0.381742)
(0.503498 -0.0132934 1.03756)
(-0.593029 -0.00743683 -0.907142)
(0.269732 -0.0155504 0.590572)
(-0.336165 -0.00319347 -0.504559)
(0.170893 -0.0169107 0.341932)
(0.556201 -0.0151258 -0.381981)
(0.506705 -0.0150738 1.0372)
(-0.595938 -0.0126693 -0.90674)
(0.273971 -0.0152436 0.589635)
(-0.338703 -0.00999276 -0.502847)
(0.174976 -0.014677 0.340811)
(-0.175569 -0.00624843 -0.279088)
(0.118422 -0.0143136 0.192896)
(0.556101 -0.017782 -0.382008)
(0.505404 -0.0177923 1.03726)
(-0.593457 -0.0166506 -0.905829)
(0.272572 -0.0174151 0.588166)
(-0.335721 -0.0140434 -0.501344)
(0.174669 -0.0164496 0.337347)
(-0.174198 -0.0098264 -0.277991)
(0.122372 -0.0151754 0.188536)
(-0.0824086 -0.00546981 -0.152153)
(0.0837705 -0.013531 0.104074)
(-0.0275366 -0.00239397 -0.0828408)
(0.0567727 -0.0104889 0.0591194)
(0.00629263 -9.79142e-05 -0.0455958)
(0.0407505 -0.00774599 0.0376577)
(0.0276805 0.00291997 -0.0308632)
(0.556333 -0.0213894 -0.382247)
(0.508427 -0.0203064 1.03792)
(-0.595579 -0.0219168 -0.907246)
(0.276709 -0.0182533 0.590625)
(-0.337718 -0.0204013 -0.503234)
(0.178919 -0.0157631 0.342508)
(-0.174158 -0.016467 -0.277844)
(0.122549 -0.0139396 0.19227)
(-0.0785326 -0.0107723 -0.150568)
(0.083293 -0.0128139 0.104293)
(-0.0239213 -0.00536578 -0.0791428)
(0.0570911 -0.0109417 0.0575698)
(0.00901444 -0.000782799 -0.0427323)
(0.042171 -0.00853951 0.0390856)
(0.0291172 0.00287685 -0.0339561)
(0.0288559 -0.00530364 0.0376267)
(0.555798 -0.0245087 -0.382214)
(0.506162 -0.0236139 1.03888)
(-0.591301 -0.026462 -0.908833)
(0.274191 -0.0206346 0.592045)
(-0.33333 -0.0256016 -0.506389)
(0.178102 -0.0171801 0.343349)
(-0.172428 -0.0223064 -0.282591)
(0.127592 -0.0142841 0.192373)
(-0.0810708 -0.0161651 -0.15323)
(0.0889201 -0.0122564 0.104287)
(-0.0254471 -0.00937244 -0.0807357)
(0.0613268 -0.00976871 0.0572377)
(0.0088564 -0.0038692 -0.0403572)
(0.0444872 -0.00679178 0.0336903)
(0.0310143 0.000526 -0.0249245)
(0.0308225 -0.00253756 0.0268734)
(0.0492437 0.0041384 -0.028411)
(0.555779 -0.0288681 -0.382457)
(0.508639 -0.0276415 1.03999)
(-0.5925 -0.0305151 -0.910509)
(0.277713 -0.024614 0.595395)
(-0.334379 -0.0290262 -0.509027)
(0.181818 -0.0211403 0.349574)
(-0.171311 -0.0248418 -0.284879)
(0.128074 -0.0175776 0.198633)
(-0.0762856 -0.0193921 -0.153732)
(0.0896688 -0.0139639 0.10699)
(-0.0212881 -0.0115816 -0.0773445)
(0.0624714 -0.0110371 0.0561647)
(0.0121111 -0.00492113 -0.0343558)
(0.0466197 -0.00753724 0.034809)
(0.0334263 0.000714324 -0.0257876)
(0.0325351 -0.00306073 0.0315378)
(0.0521467 0.00557503 -0.0371204)
(0.0141812 0.00257923 0.0454498)
(0.555179 -0.0328012 -0.382444)
(0.506677 -0.0318568 1.04139)
(-0.588131 -0.0354502 -0.913284)
(0.275841 -0.0278667 0.598265)
(-0.329891 -0.0344648 -0.513881)
(0.18176 -0.0230162 0.352767)
(-0.168744 -0.0307215 -0.290707)
(0.132354 -0.0183956 0.201181)
(-0.0771832 -0.0238947 -0.158723)
(0.0961714 -0.0150335 0.109683)
(-0.0222986 -0.0147745 -0.0815544)
(0.0677841 -0.0114868 0.0600474)
(0.0124404 -0.0069129 -0.0354111)
(0.0500978 -0.00713999 0.031673)
(0.0355106 -0.000728708 -0.0197009)
(0.0356911 -0.00121346 0.0213959)
(0.0548337 0.00462606 -0.0227726)
(0.0169122 0.00588646 0.0277761)
(0.0794841 0.00999137 -0.0479546)
(-0.0114524 0.0136182 0.0699847)
(0.119403 0.0157972 -0.110666)
(0.555119 -0.0379727 -0.3827)
(0.50873 -0.0373838 1.04239)
(-0.588521 -0.0388692 -0.91441)
(0.278924 -0.0344881 0.600569)
(-0.329669 -0.0360954 -0.515728)
(0.185204 -0.0305729 0.356915)
(-0.166523 -0.0307655 -0.293022)
(0.134263 -0.0257794 0.206277)
(-0.07255 -0.0239994 -0.160922)
(0.0981753 -0.0203216 0.113931)
(-0.0175095 -0.0160048 -0.0819519)
(0.0700802 -0.014035 0.0621783)
(0.016521 -0.00868772 -0.0357094)
(0.0527207 -0.00786427 0.0344602)
(0.0393564 -0.001472 -0.021874)
(0.0378803 -0.00146738 0.0260121)
(0.0591901 0.00566021 -0.0295051)
(0.0195891 0.00579319 0.0383966)
(0.083816 0.0128771 -0.0575562)
(-0.00804359 0.0136391 0.0802232)
(0.123103 0.0204109 -0.120139)
(-0.0496555 0.0218313 0.160319)
(0.183309 0.0270223 -0.228269)
(-0.109232 0.0288144 0.290449)
(0.285682 0.0322237 -0.395618)
(-0.213511 0.0346196 0.51722)
(0.470484 0.0368323 -0.634793)
(-0.435774 0.0384812 0.996717)
(0.626776 0.0399743 -0.817777)
(-0.635478 0.0390197 0.574935)
(0.55477 -0.0429972 -0.382797)
(0.508045 -0.042808 1.04372)
(-0.585281 -0.0439947 -0.916826)
(0.278892 -0.039394 0.602956)
(-0.325969 -0.0409352 -0.519477)
(0.186748 -0.0345055 0.359462)
(-0.163456 -0.0352879 -0.296632)
(0.138477 -0.0287098 0.207748)
(-0.0712722 -0.0273779 -0.163022)
(0.103563 -0.0228314 0.113828)
(-0.0158005 -0.0185477 -0.0813452)
(0.0749247 -0.0156812 0.0600327)
(0.0187338 -0.0100362 -0.0333941)
(0.0572576 -0.00834259 0.0316122)
(0.0419249 -0.00207913 -0.0172469)
(0.0428155 -0.000538864 0.0198872)
(0.062042 0.0049339 -0.0201233)
(0.0241831 0.00869276 0.025403)
(0.0871295 0.0126884 -0.046115)
(-0.00375038 0.0180952 0.0677253)
(0.127276 0.0213819 -0.109797)
(-0.0456272 0.0260753 0.150726)
(0.186731 0.0302341 -0.220377)
(-0.106121 0.032591 0.283768)
(0.288749 0.0373406 -0.390492)
(-0.21124 0.0384522 0.512728)
(0.473304 0.042805 -0.632074)
(-0.434877 0.0430339 0.994515)
(0.628909 0.0460113 -0.816553)
(-0.635391 0.0444018 0.575053)
(0.554874 -0.0491199 -0.383112)
(0.510292 -0.0495544 1.04442)
(-0.585308 -0.0480215 -0.91714)
(0.282328 -0.0472505 0.603504)
(-0.324792 -0.0430773 -0.51969)
(0.190624 -0.0429192 0.360433)
(-0.160095 -0.0362078 -0.296868)
(0.141565 -0.0360932 0.209312)
(-0.0660859 -0.0281201 -0.163987)
(0.1065 -0.0278554 0.116186)
(-0.0100601 -0.019777 -0.0829672)
(0.0783964 -0.0185871 0.0635525)
(0.0239839 -0.0110347 -0.0380633)
(0.0605733 -0.00957242 0.0362644)
(0.0471639 -0.00214952 -0.0204174)
(0.0448791 -0.000403727 0.023666)
(0.068371 0.00727208 -0.0278459)
(0.0274024 0.00888277 0.0384504)
(0.0930018 0.0169319 -0.0579185)
(0.000784653 0.0179918 0.0800785)
(0.130735 0.0270433 -0.120087)
(-0.0403913 0.0260453 0.160188)
(0.189219 0.036634 -0.22753)
(-0.101344 0.0341412 0.290041)
(0.290642 0.0438933 -0.394774)
(-0.206893 0.0418865 0.515763)
(0.474605 0.0494781 -0.634049)
(-0.43203 0.0480429 0.995815)
(0.629351 0.052705 -0.816432)
(-0.634697 0.0507041 0.575228)
(0.55491 -0.0554852 -0.383379)
(0.511191 -0.0565044 1.04535)
(-0.583252 -0.053482 -0.918262)
(0.284276 -0.0542844 0.604088)
(-0.321406 -0.047226 -0.520715)
(0.193488 -0.0495959 0.360408)
(-0.155546 -0.0390691 -0.297194)
(0.145987 -0.0418868 0.208785)
(-0.0622546 -0.0300321 -0.163946)
(0.111428 -0.0320603 0.115853)
(-0.00614511 -0.0215439 -0.0821398)
(0.0834178 -0.0209831 0.0629951)
(0.0278605 -0.0124291 -0.0354962)
(0.0660255 -0.00991776 0.0322506)
(0.0511051 -0.00245616 -0.0171212)
(0.0522072 0.000815124 0.0201766)
(0.0712879 0.00795886 -0.019694)
(0.0339112 0.0107463 0.0269493)
(0.0960089 0.018765 -0.0464124)
(0.00654416 0.0204372 0.0675839)
(0.134868 0.0298324 -0.109324)
(-0.0356053 0.0291222 0.14938)
(0.194027 0.0411422 -0.218507)
(-0.0980417 0.0375811 0.281987)
(0.295347 0.0502205 -0.388505)
(-0.204375 0.0460167 0.509933)
(0.478832 0.0568527 -0.630536)
(-0.431012 0.0534449 0.992717)
(0.632614 0.0602761 -0.814711)
(-0.634649 0.0574596 0.575314)
(0.55533 -0.0629234 -0.383835)
(0.514421 -0.064537 1.04571)
(-0.58348 -0.0590511 -0.917613)
(0.289075 -0.0628946 0.602607)
(-0.319715 -0.0510761 -0.518661)
(0.198728 -0.0578757 0.357762)
(-0.15101 -0.0413854 -0.29403)
(0.149964 -0.0488643 0.205842)
(-0.055413 -0.0323995 -0.161167)
(0.114583 -0.0360892 0.113458)
(0.0014322 -0.0236105 -0.0799758)
(0.0872911 -0.0234952 0.0612623)
(0.0351901 -0.0131371 -0.0346337)
(0.070472 -0.0111531 0.0346579)
(0.0579168 -0.00139338 -0.020287)
(0.0552712 0.000664778 0.0259879)
(0.0782394 0.0104641 -0.0301002)
(0.0382592 0.0109786 0.0399367)
(0.102468 0.0228061 -0.0574798)