/*--------------------------------*- C++ -*----------------------------------*\
  =========                 |
  \\      /  F ield         | OpenFOAM: The Open Source CFD Toolbox
   \\    /   O peration     | Website:  https://openfoam.org
    \\  /    A nd           | Version:  10
     \\/     M anipulation  |
\*---------------------------------------------------------------------------*/
FoamFile
{
    format      ascii;
    class       volVectorField;
    location    "0.1";
    object      wallShearStress;
}
// * * * * * * * * * * * * * * * * * * * * * * * * * * * * * * * * * * * * * //

dimensions      [0 2 -2 0 0 0 0];

internalField   uniform (0 0 0);

boundaryField
{
    inlet
    {
        type            calculated;
        value           uniform (0 0 0);
    }
    outlet
    {
        type            calculated;
        value           nonuniform List<vector> 0();
    }
    walls
    {
        type            calculated;
        value           uniform (0 0 0);
    }
    drone
    {
        type            calculated;
        value           nonuniform List<vector> 
7103
(
(-0.00213472 0.00448173 -0.00230141)
(-0.00433315 0.00756972 -0.00300655)
(-0.0122621 0.0094647 0.00276825)
(-0.0145606 -0.00809627 -0.00406687)
(-0.0131269 -0.0122889 -0.000994075)
(-0.00671202 0.000616375 0.000181157)
(-0.00507266 0.000656922 2.96996e-05)
(-0.00605647 -0.00196232 -0.00272531)
(-0.00410871 -0.00106525 0.00212834)
(-0.00117595 0.00141186 -0.00244518)
(-0.00122269 0.00239789 -0.00244617)
(-0.00811993 0.00542127 -0.00179479)
(-0.00551671 0.00754074 0.000158522)
(-0.00522231 0.00921694 0.003805)
(-0.00249495 0.00351279 -0.000604347)
(-0.00712405 0.00211975 -0.00148187)
(-0.00365615 -0.0031548 -0.00379105)
(-0.00247133 -5.73933e-05 -0.00224676)
(-0.00797178 0.00277022 -0.00112357)
(-0.00853017 0.0032916 -0.000978077)
(-0.00360737 0.00488971 -0.00223073)
(-0.0156333 -0.00268726 -0.000615834)
(-0.0189354 0.000575472 0.000401585)
(-0.0183394 -0.00247034 7.23181e-05)
(-0.00418358 -0.00321057 0.00212823)
(-0.0171556 -0.00426383 -0.00123621)
(-0.00226393 -3.40541e-06 0.00214957)
(-0.00153145 0.000890787 0.00181565)
(-0.00336012 0.00517051 2.4397e-05)
(0.000331775 0.00116085 -0.00155524)
(-0.00902691 0.00976826 -0.00194185)
(-0.011014 -0.00542456 0.000397985)
(-0.00966243 -0.00284376 -0.00152245)
(-0.0100458 0.000218184 -0.00272491)
(-0.010193 0.0102501 4.41233e-05)
(-0.0173009 0.00591701 0.00267407)
(-0.00303021 0.00241302 0.000245974)
(-0.0165833 0.0022831 0.000672155)
(-0.0162591 -0.00117391 -0.000366741)
(-0.018987 4.05612e-05 0.000117432)
(-0.0115634 -0.00340511 -0.00312022)
(-0.0174663 -0.00520857 -0.00208663)
(-0.012324 -0.0062605 -0.00303021)
(-0.0147819 -0.00460467 -0.00193097)
(-0.0171302 0.00632378 0.00230552)
(-0.0116574 0.0045328 0.0011365)
(-0.0092011 0.00209165 0.000323386)
(-0.00975819 0.000792841 4.00132e-05)
(-0.00881392 -0.000387448 -6.01674e-05)
(-0.00328805 0.000104607 8.73658e-05)
(-0.00904635 0.00212561 0.000441658)
(-0.00440282 0.00388061 -0.00166482)
(-0.00430282 0.00375531 -0.00162704)
(-0.00445446 -0.000315606 -0.000298365)
(-0.00413236 -0.0004774 -0.000375802)
(-0.00955973 0.00224705 0.000420613)
(-0.00639011 0.000330175 -0.000395931)
(-0.00856351 0.00207365 0.000290978)
(-0.00597499 0.00016857 -0.000544426)
(-0.00585288 7.12128e-05 -0.000446849)
(-0.00939747 0.00234503 0.000255425)
(-0.00513438 0.000137059 -0.000604308)
(-0.00565586 0.000229204 0.000120838)
(-0.00471292 0.000542761 -0.000345702)
(-0.00567881 0.00039091 0.000676589)
(-0.0123202 0.0023427 -0.000926607)
(-0.00581613 0.000435582 0.000793942)
(-0.0085675 0.000644018 0.000200784)
(-0.00617406 0.000398747 0.000730714)
(-0.0115091 0.00220477 -0.000803492)
(-0.00465211 0.000139673 -0.000194992)
(-0.012834 0.00262624 -0.000817626)
(-0.0087411 0.00149406 -8.00036e-05)
(-0.0123726 0.00271066 -0.00116058)
(-0.00189698 0.00223898 -5.313e-05)
(-0.00235426 0.00245748 -0.000377531)
(-0.00235425 0.00245716 -0.000377511)
(-0.00870121 0.00567974 0.00253053)
(-0.00253871 0.00277534 -0.000528879)
(-0.00266076 0.00225707 0.000159902)
(-0.00500054 0.000500429 0.000683553)
(-0.00434593 0.00403263 -0.000804207)
(-0.000184542 0.000448195 0.000117226)
(0.000214611 0.000333124 0.000787851)
(-0.0134187 -0.00117468 -0.00102386)
(-0.0089313 0.00418101 0.00316576)
(-0.00589794 0.00358536 0.00340466)
(-0.00852428 0.00201138 0.000131178)
(-0.00929878 0.00211712 0.000120826)
(-0.00800765 0.00140799 1.93261e-05)
(-0.00894241 0.00207281 0.000210055)
(-0.00683975 0.00190552 0.00122451)
(-0.00842249 0.0018758 0.000206478)
(-0.00699033 0.00146768 -3.59003e-05)
(-0.00984854 0.00229832 0.000251131)
(-0.00642713 0.00123373 4.89466e-05)
(-0.00812253 0.00179569 8.83837e-05)
(-0.00757215 0.00199158 0.0018449)
(-0.00756561 0.00164272 9.68969e-05)
(-0.00631341 3.84177e-05 -0.000203027)
(-0.00646663 0.000466463 0.000310571)
(-0.009464 0.000633768 0.000441662)
(-0.00758294 0.00611474 -0.00432163)
(-0.00991081 0.000686607 5.95294e-05)
(-0.00767359 0.00184305 0.000525527)
(-0.00801481 0.00151801 0.000693078)
(-0.00816841 0.00219338 0.000403815)
(-0.00570653 0.00142269 0.000594589)
(-0.00681769 0.00182859 0.000863024)
(-0.00817537 0.00241147 0.000661802)
(-0.00710721 0.00190376 0.000656114)
(-0.0084539 0.00242149 0.000513609)
(-0.00703239 0.00139089 0.00038429)
(-0.00798841 0.00220108 0.000837292)
(-0.00827513 0.00231072 0.000562363)
(-0.00248402 0.00266964 -0.000159487)
(-0.00648956 0.00472328 0.00366142)
(-0.00180681 0.00194166 -5.48678e-05)
(-0.00235408 0.00267687 -0.00022852)
(-0.00260344 0.00265796 -0.000368084)
(-0.00260513 0.0026572 -0.000368161)
(-0.00269789 0.00289688 -0.000208852)
(-0.00245994 0.00253328 -0.000319234)
(-0.00245969 0.00253391 -0.000319243)
(-0.0112084 0.00230344 0.00153238)
(-0.00367051 0.0025208 -0.00165966)
(-0.00240264 0.00254266 -0.000362945)
(-0.0024432 0.00279396 -0.000323353)
(-0.00440297 0.000793306 0.000358106)
(-0.00612099 0.00137507 0.000507618)
(-0.00226316 0.00188073 -0.000169578)
(-0.0084974 0.00178677 3.74066e-05)
(-0.00883697 0.000295267 -0.00013739)
(-0.00892848 0.00219708 0.000720427)
(-0.00876685 0.000219851 -3.71446e-05)
(-0.00966805 0.00215663 0.000208392)
(-0.00968449 0.00248279 0.000756332)
(-0.00958722 0.000634395 5.61845e-05)
(-0.0120345 0.00258997 0.00134378)
(-0.00654664 0.00107273 0.000811146)
(-0.00699402 0.00115076 0.000940321)
(-0.00291901 0.00226199 0.000244344)
(-0.00291958 0.00226243 0.000244426)
(-0.0025886 0.00210364 0.00029766)
(-0.00329734 0.00271405 0.00043917)
(-0.0138667 0.00225431 0.00131768)
(-0.00974441 0.00255822 0.000401973)
(-0.00520301 0.000468547 -0.000412577)
(-0.00609603 0.000831575 0.000160756)
(-0.00691591 0.00057923 -0.000267809)
(-0.00604622 0.000981015 8.38491e-05)
(-0.00521842 0.000397019 -0.00039303)
(-0.00657422 0.000628212 -0.00036607)
(-0.00528502 0.000523139 -0.000355219)
(-0.0080864 0.000673186 -9.27344e-05)
(-0.00498651 0.00403993 -0.000326296)
(-0.00853484 0.000733436 -0.000142033)
(-0.00468199 0.000948015 -0.000135442)
(-0.00064548 0.00383729 -0.000615153)
(-0.009534 0.000942132 0.000164201)
(-0.000283085 0.000408797 -2.11411e-05)
(-0.000300469 0.000507231 2.07834e-05)
(-0.00104588 0.00179869 -0.00103474)
(-0.0095487 0.000948842 0.000122)
(0.00104648 0.000662453 0.00365683)
(-0.00114212 0.00121859 -0.000752115)
(-0.00808737 0.000733703 -0.000245738)
(-0.00879447 0.000752458 -7.88978e-05)
(-0.00926775 0.00087338 2.40746e-05)
(-0.00845737 0.000763143 -0.000260906)
(-0.00877424 0.000770023 -1.50868e-05)
(-0.00951407 0.000912299 -5.06526e-05)
(-0.00534364 0.000881588 -9.15952e-05)
(-0.00552643 0.00110823 -0.00020818)
(-0.00814561 0.00100295 -0.00226491)
(-0.0180184 -0.000787341 -0.000322289)
(-0.0140167 -0.00103446 -0.000842932)
(-0.0109952 -0.00202889 0.00190903)
(-0.0138268 -0.00122129 -0.000910101)
(-0.0183314 -0.00101941 -5.08339e-05)
(-0.0127788 -0.00158187 0.00169036)
(-0.0142019 -0.00110745 -0.000843441)
(-0.00528869 0.0042757 -0.000171167)
(-0.0178811 -0.000742022 -0.000277586)
(-0.0134022 0.00208309 0.000426293)
(-0.00467035 0.00381779 -0.000246274)
(-0.0105571 0.00195427 -0.000165681)
(-0.0186519 -0.00100592 1.89336e-05)
(-0.00482068 0.0038556 -6.45461e-05)
(-0.00953232 -0.00209591 0.00288108)
(-0.00150064 0.00341425 6.98476e-05)
(-0.0116125 -0.00160735 0.00263621)
(-0.00230593 0.00466464 -0.00352931)
(-0.00472673 0.0116484 -0.00551898)
(-0.00589975 0.000397013 -5.23301e-05)
(-0.00642775 0.000657637 -0.000115512)
(-0.00634043 0.00046454 0.000227774)
(-0.00611837 0.000565341 -0.000428038)
(-0.00542433 0.00182651 -0.00156242)
(-0.00712277 0.00232842 -0.0011995)
(-0.00955348 0.00208237 -0.0047514)
(-0.00593109 0.00150148 -0.00220795)
(-0.0217041 0.00852117 0.00343593)
(-0.00317502 0.0029371 -0.000467331)
(-0.00402194 0.00454036 -0.000215894)
(-0.0078969 0.00531407 -0.0056766)
(-0.00717052 0.00585375 -0.00047816)
(-0.0110844 0.00956852 0.00111194)
(-0.00879581 0.00523418 0.00238171)
(-0.00656596 0.00477181 -0.00309691)
(-0.0108606 0.00416521 0.000257611)
(-0.00564117 0.0017562 -0.00201859)
(-0.00318222 0.0023569 -0.000827027)
(-0.00469034 0.00161106 -0.00173378)
(-0.00705538 -0.000598052 0.000523941)
(-0.00645886 -0.000150785 -0.000141937)
(-0.00630198 0.00149017 0.000356818)
(-0.00971708 0.00224392 0.000288129)
(-0.0085226 0.00185243 0.000244643)
(-0.0091112 0.00205267 0.000202311)
(-0.00899697 0.0126517 0.00737635)
(-0.00790697 0.00111421 1.97728e-05)
(-0.00940677 0.000893802 -0.000262614)
(-0.00693773 0.00112562 0.000466667)
(-0.00867682 0.000912309 -0.000632109)
(-0.00932547 -0.000424401 -2.95824e-05)
(-0.0169541 -0.0043168 0.00292766)
(-0.00629009 0.00155957 0.00118447)
(-0.00596841 0.0014669 0.00105016)
(-0.00770869 0.00175327 0.000842037)
(-0.00343096 0.000385319 0.00027704)
(-0.00341914 0.000383937 0.000271793)
(-0.00410963 0.000573923 0.000433075)
(-0.00456101 0.000922531 0.000605806)
(-0.00908394 0.00238264 0.000788926)
(-0.00965135 0.00267605 0.00085162)
(-0.00901356 0.00252104 0.000684267)
(-0.0084453 0.00193106 0.000433032)
(-0.00912634 0.00225575 0.000567239)
(-0.00873091 0.00214745 0.000544087)
(-0.00449574 0.00463394 0.000858502)
(-0.00415696 0.00455874 -0.000789406)
(-0.0037831 0.00349627 0.000498102)
(-0.0120337 0.0039441 0.00353618)
(-0.00449036 0.00463048 0.000796636)
(-0.00391433 0.00422509 -0.000827846)
(-0.00416769 0.00456552 -0.000770873)
(-0.00447138 -0.000727872 -0.000925103)
(-0.00584029 0.00150467 0.000733127)
(-0.00526982 0.000402709 0.000259292)
(-0.00477258 -0.000513485 -0.00059124)
(-0.00615633 -0.000355543 -0.000170172)
(-0.00994908 0.00233008 0.000383692)
(-0.0094144 0.00227773 0.000546086)
(-0.00958373 0.00225819 0.000433966)
(-0.011349 0.00148914 0.000236896)
(-0.0121079 0.00182155 0.000474026)
(-0.00635205 0.00141509 0.000871448)
(-0.00777243 0.00197129 0.000711645)
(-0.00798311 0.00178709 0.000652972)
(-0.00876233 0.00100319 6.0721e-05)
(-0.00720906 3.71712e-05 -0.000589394)
(-0.00820906 0.000719604 0.000309364)
(-0.00727455 0.00045949 2.643e-05)
(-0.00934982 0.00222584 0.000457643)
(-0.00952993 0.00246171 0.000275857)
(-0.0112816 0.00660616 0.0033491)
(-0.00594187 0.00384037 -0.000996067)
(-0.00670884 0.00410325 0.00148961)
(-0.00777988 0.00605435 -0.000662072)
(-0.0106405 -0.000267536 -0.00420536)
(-0.005021 0.000384154 -0.000301541)
(-0.00582431 0.000455887 0.000200571)
(-0.00652386 0.000322189 3.43937e-05)
(-0.00663556 0.000530687 0.00011173)
(-0.00486254 0.00052492 -0.000312213)
(-0.00536104 0.000581723 -0.000389984)
(-0.00556277 0.000583214 -0.000326511)
(-0.00658128 0.000457012 0.000405114)
(-0.00991395 0.0049742 0.00156185)
(-0.0103681 0.0013077 -0.000381011)
(-0.00893946 8.02051e-05 -0.000120314)
(-0.00501838 0.00205182 -0.000657573)
(-0.00687691 0.000694589 0.000342541)
(-0.00499434 0.000585395 0.000727362)
(-0.0093917 0.00070799 5.319e-05)
(-0.00553707 0.00061453 0.00101921)
(-0.00532423 0.000461318 0.000830193)
(-0.00581405 0.00519518 -0.00348532)
(-0.00683627 0.000734792 0.000183031)
(-0.0102035 0.0010887 0.00034001)
(-0.0100627 0.00129046 -0.000324431)
(-0.0115775 0.00216782 -0.000150098)
(-0.00979965 0.00119851 3.05572e-05)
(-0.00478884 0.000403755 -8.02151e-05)
(-0.0119016 0.000329781 -0.00140336)
(-0.0160528 5.30735e-05 -0.000929539)
(-0.0117935 -0.0036917 0.000700855)
(-0.0194193 0.000601026 0.000389259)
(-0.0160482 0.000258797 0.000771137)
(-0.0186669 -6.93216e-05 0.000599261)
(-0.00945024 0.00143788 -0.000165787)
(-0.00949432 0.00165993 -8.83043e-05)
(-0.0136831 0.0104017 0.000521182)
(-0.0071635 0.00439047 0.00156132)
(-0.0174031 0.00156504 0.000644469)
(-0.00747045 -0.000319303 -0.000682414)
(-0.00987551 0.000635254 -0.000222563)
(-0.0107161 0.00233578 -0.000287861)
(-0.0116115 0.00317009 -0.00149585)
(-0.00739471 0.0047478 0.00374706)
(-0.00358173 0.00135605 -0.00485303)
(-0.00997465 -0.000261248 -6.7827e-05)
(-0.00720073 0.00270665 -0.000182385)
(-0.00761936 0.00270477 -0.000129083)
(-0.00773339 0.00288619 -0.000177738)
(-0.00730579 0.00273282 -0.000145653)
(-0.0246283 0.0093366 -0.00149598)
(-0.0121827 0.00459509 -0.000896937)
(-0.00730128 0.0026569 -0.00089733)
(-0.0116723 0.00230567 -0.00440224)
(-0.0020901 0.00236429 4.15775e-07)
(-0.00126575 0.00150354 -4.36103e-05)
(-0.00153635 0.00168615 -3.09027e-06)
(-0.00215693 0.00231801 -2.05496e-05)
(-0.00134026 0.00161646 -8.42082e-05)
(-0.00241638 0.00259428 -0.000329924)
(-0.0025282 0.00270829 -0.000491222)
(-0.0120518 0.0103586 0.00142093)
(-0.00507723 0.00414393 0.000154106)
(-0.00642008 0.00547816 -0.000606869)
(-0.00545868 0.00469878 -0.000634323)
(-0.00413791 0.00340945 -0.000474407)
(-0.00413835 0.00340827 -0.000474584)
(-0.00420068 0.00348201 -0.000427409)
(-0.00420236 0.00348109 -0.000427813)
(-0.00853854 0.00703325 -0.000369773)
(-0.00416743 0.00332324 0.000257159)
(-0.00409342 0.00322412 0.000219329)
(-0.0047509 0.00345805 -0.00206874)
(7.5539e-05 0.000411428 0.000306332)
(-5.84586e-05 0.000432445 0.000238555)
(0.000246937 0.000616904 0.000587109)
(0.000111614 0.00191331 0.00145515)
(0.000294327 0.000407049 0.000663515)
(0.000277798 0.000853144 0.0011341)
(0.000342923 0.00217416 0.00139156)
(-0.00663732 0.00656393 -0.00278626)
(-0.0038023 0.00349647 -0.000581085)
(-0.00380345 0.00349498 -0.000581085)
(-0.0110577 -0.000200225 -0.00189966)
(-0.0114297 -0.00111527 -0.00119711)
(-0.0121765 -0.000507196 -0.00193793)
(-0.0130015 -0.00158264 -0.00159429)
(-0.00487617 0.00397401 -0.000294142)
(-0.00487821 0.00397163 -0.000294035)
(-0.0126747 0.00412079 0.00108759)
(-0.0231031 0.00367421 0.0024824)
(-0.0108245 0.00367217 0.000122292)
(-0.0068589 -0.000548849 0.000150712)
(-0.0067449 -1.91986e-05 -0.000290337)
(-0.00786681 -0.000588971 0.00106149)
(-0.00731021 -0.000599011 0.000506545)
(-0.00844161 -0.000356198 0.000285487)
(-0.00729141 -8.58551e-05 -0.000125508)
(-0.00923759 -0.000444837 0.00120787)
(-0.00911706 0.00538666 0.0038611)
(-0.00574059 0.00108102 0.00066766)
(-0.00292307 0.00308961 -0.00050601)
(-0.0065633 0.00103258 0.000904369)
(-0.0030556 0.00316353 -0.000353366)
(-0.00305661 0.00316272 -0.000353343)
(-0.00947827 0.00103807 -0.0032827)
(-0.00762226 0.00118876 -0.00284058)
(-0.0104719 0.00206064 3.22277e-06)
(-0.00877448 0.00179881 5.06817e-05)
(-0.00937107 0.00239737 0.000352525)
(-0.0100671 0.00193484 4.44644e-05)
(-0.0143585 0.00143683 -0.00449872)
(-0.00740096 0.0016421 0.000163438)
(-0.00906097 0.00214942 0.000263991)
(-0.00782832 0.00184946 0.000325487)
(-0.00612102 0.00161337 0.000699114)
(-0.00735413 0.00163979 0.00101009)
(-0.00690456 0.00164297 0.000727689)
(-0.00893893 0.00207263 0.000252781)
(-0.00818348 0.00174625 0.000463078)
(-0.00815719 0.00187607 0.000438331)
(-0.00998636 0.0023116 0.000263379)
(-0.00964735 0.00225509 0.000236288)
(-0.00953718 0.00217858 0.000198351)
(-0.00752012 0.00156997 0.000139767)
(-0.00695072 0.00147123 -3.37501e-05)
(-0.00811411 0.00177719 8.10799e-05)
(-0.00907913 0.00207152 0.000144565)
(-0.00752014 0.00163085 1.88756e-05)
(-0.0086824 0.00193509 7.67159e-05)
(-0.00756965 0.00154787 0.0012035)
(-0.00736212 0.00156238 0.0013301)
(-0.00776768 0.00154252 0.000399493)
(-0.00668576 0.00051128 -0.000339079)
(-0.00617671 0.000577709 -0.000386663)
(-0.000102571 0.000838295 0.00381737)
(-0.0185959 -0.0123158 -0.00456563)
(0.000490191 0.00046821 0.00328443)
(-0.00341813 -0.00216013 0.00241043)
(-0.00375407 -0.00244791 0.00262718)
(-0.00955041 0.000961418 -0.000476134)
(-0.00660303 0.00111721 0.000415628)
(-0.006205 0.00107944 0.000517919)
(-0.00567154 0.00125169 0.000479063)
(-0.00605069 0.00129965 0.000366841)
(-0.0176988 -0.00804497 -0.0061972)
(-0.00913771 0.00487274 0.000433513)
(-0.00840328 0.00296137 -0.0002872)
(-0.00786168 0.00261423 -9.30369e-05)
(-0.00822606 0.00298532 -0.000158719)
(-0.00792623 0.00247596 -0.000155369)
(-0.00633827 0.00214321 0.000164492)
(-0.00716388 0.00235291 -3.56688e-05)
(-0.0091127 0.00336649 -0.000325465)
(-0.00623035 0.00188116 0.000234652)
(-0.00637683 0.00132215 0.000163748)
(-0.0072649 0.0021409 -6.63377e-06)
(-0.00716998 0.00187008 -4.42505e-05)
(-0.00638448 0.00160934 0.000255736)
(-0.00715787 0.000962571 7.12104e-05)
(-0.00865612 0.00108038 4.44411e-06)
(-0.00792904 0.000966124 6.16177e-05)
(-0.00828108 0.000661228 -0.00106273)
(-0.0088306 0.000492854 -0.000943779)
(-0.00768768 0.000381141 -0.000259612)
(-0.00955915 0.000866295 -0.000442244)
(-0.0088613 0.00104418 -0.000662129)
(-0.0093362 0.000886528 -0.000394814)
(-0.0108044 -0.000750109 1.11319e-05)
(-0.00963801 -0.000675926 9.30738e-05)
(-0.0103756 -0.000940151 4.65575e-05)
(-0.00818923 0.00990159 0.00388495)
(-0.00657395 0.00164248 0.00122634)
(-0.0125941 0.0036093 0.00374448)
(-0.00742074 0.00159287 0.00122294)
(-0.00773227 0.00185507 0.000230588)
(-0.00810304 0.00193633 0.00060258)
(-0.00704303 0.00139939 0.00109658)
(-0.00915841 0.00216052 0.000364534)
(-0.00800871 0.00185033 0.000667546)
(-0.00787195 0.00199403 0.000308176)
(-0.00769639 0.00188779 0.000289431)
(-0.00716735 0.00163568 0.000250366)
(-0.00440959 0.000813023 0.000475739)
(-0.00682675 0.00193777 0.00067416)
(-0.00565581 0.00145167 0.000637743)
(-0.00542548 0.00122461 0.0007271)
(-0.00716717 0.00204545 0.000882617)
(-0.00589463 0.00154835 0.000803843)
(-0.0076842 0.00228504 0.000690326)
(-0.00772688 0.00229196 0.000763601)
(-0.00679898 0.00196872 0.000732153)
(-0.00820776 0.00225987 0.000420982)
(-0.00830437 0.00215993 0.000323653)
(-0.00866634 0.00240326 0.000429927)
(-0.00834063 0.00227014 0.00079713)
(-0.00794852 0.00229337 0.000668841)
(-0.00866692 0.00245795 0.000681557)
(-0.00846117 0.00230954 0.000425016)
(-0.00839828 0.00246515 0.000584999)
(-0.00872434 0.00249072 0.000524532)
(-0.00780689 0.00173052 0.000343341)
(-0.00762633 0.00172033 0.000423883)
(-0.00820561 0.00199225 0.000456969)
(-0.00873222 0.00226704 0.000717642)
(-0.00811363 0.002275 0.000819968)
(-0.00863877 0.00228187 0.000676246)
(-0.00803797 0.0020611 0.000472477)
(-0.00826824 0.00235218 0.000675473)
(-0.00840353 0.0022305 0.000559005)
(-0.00194404 0.00220851 1.31808e-05)
(-0.00234644 0.00246681 8.09035e-05)
(-0.00745535 0.00400081 0.00407801)
(-0.00440929 0.00476238 0.000491745)
(-0.00267706 0.00303382 -0.00014322)
(-0.00392163 0.00196492 0.00151999)
(-0.00200491 0.00223594 7.70358e-05)
(-0.00201792 0.00222284 -0.000256992)
(-0.00250571 0.00259017 -0.000373616)
(-0.00299794 0.00341086 -0.000248439)
(-0.00283852 0.00311225 -0.000299518)
(-0.00404734 0.00440687 -0.000622141)
(-0.00255506 0.0026059 -0.000356214)
(-0.00362904 0.00359746 -7.75811e-05)
(-0.0028112 0.00298947 -0.000351571)
(-0.00281259 0.00298853 -0.000351639)
(-0.0123129 0.00334219 0.00341461)
(-0.00347653 0.00349203 -7.63876e-07)
(-0.00442111 0.00481281 0.00039683)
(-0.00588292 0.00179095 0.00158572)
(-0.00429957 0.0015065 0.0011646)
(-0.00507417 0.00170305 0.00144034)
(-0.00444534 0.00496283 -0.000921837)
(-0.00432342 0.00466233 -0.00103382)
(-0.00472775 0.00501193 0.000222356)
(-0.00789539 0.00240213 0.00216549)
(-0.00427412 0.00406315 0.000540689)
(-0.00563168 0.00184134 0.00178155)
(-0.0026817 0.0028562 -0.000443089)
(-0.00268074 0.00285777 -0.000443186)
(-0.00258257 0.00287341 -0.000369194)
(-0.00287212 0.00311977 -0.000437564)
(-0.00287574 0.00315844 -0.000392204)
(-0.00793803 0.00693173 -0.00343668)
(-0.00359642 0.000343555 0.000199187)
(-0.00383984 0.00031462 0.000193719)
(-0.00429631 -0.000404245 -0.00120763)
(-0.00715808 -0.000358957 -0.00189829)
(-0.00777139 0.00195543 0.000854737)
(-0.00506931 0.000585177 0.000539129)
(-0.0117742 0.00976084 -0.00116063)
(-0.00712021 0.00597105 0.00076991)
(-0.00734129 0.00496667 0.00220136)
(-0.00439789 0.00342441 0.000234636)
(-0.00439112 0.00336755 -9.6736e-06)
(-0.00678121 0.00132492 -0.000127273)
(-0.0105733 0.00179335 0.000107788)
(-0.0104501 0.00146818 6.78725e-05)
(-0.00603497 0.000849995 0.000420772)
(-0.00884589 0.00150775 0.00049023)
(-0.00661393 9.07345e-05 9.07061e-05)
(-0.0063867 -0.000538383 -0.000209472)
(-0.00898547 0.00116826 0.00035698)
(-0.00685876 -0.000184237 -0.000168253)
(-0.0100515 0.0022916 0.000313864)
(-0.0092271 0.00189042 0.000170752)
(-0.00957173 0.00210379 0.000330123)
(-0.00881906 0.00224376 0.00063473)
(-0.00965754 0.00190865 0.000579282)
(-0.0116414 0.00268357 0.000612367)
(-0.0111351 0.00190712 0.000221322)
(-0.00972111 0.00160453 0.000473804)
(-0.0116927 0.00248707 0.000529748)
(-0.00495834 0.00156689 0.00114321)
(-0.0126589 0.00299514 0.000761019)
(-0.00704951 0.00148558 0.000890808)
(-0.00778475 0.00163628 0.00053837)
(-0.0068668 0.00139606 0.000919643)
(-0.0131767 0.00316498 0.000756121)
(-0.00854161 0.00188181 0.000513184)
(-0.00733128 0.00160647 0.000771476)
(-0.0090858 0.0019077 0.00238106)
(-0.00775042 0.00165503 0.000682129)
(-0.00816711 0.00180093 0.000554815)
(-0.00960384 0.00296429 0.0011543)
(-0.00900779 0.00203692 0.000550765)
(-0.0207796 0.00247169 0.000616292)
(-0.0130438 0.000407197 -0.000439102)
(-0.00664018 3.04121e-05 -0.000799058)
(-0.00577958 0.000148184 -0.00127356)
(-0.0119117 3.77023e-05 -0.000991449)
(-0.0109923 -3.67757e-05 -0.00363599)
(-0.00580508 6.7229e-05 -0.00131105)
(-0.0121619 -0.000237119 -0.00304511)
(-0.00499401 0.00404416 0.000379224)
(-0.00763116 0.00377479 0.00280022)
(-0.00874011 0.00732848 0.00123314)
(-0.00474641 0.00388936 0.000516318)
(-0.00280908 0.00226607 0.00032651)
(-0.00658294 0.00463446 -0.000770357)
(-0.00591739 5.62538e-05 -0.00125923)
(-0.00291484 0.00224205 0.000273176)
(-0.00474073 0.00392531 0.000600746)
(-0.00474134 0.00392584 0.000600831)
(-0.0110449 0.00130055 0.000829567)
(-0.011158 0.00184496 0.000438682)
(-0.00882233 0.000560665 0.000107647)
(-0.00569002 0.00349914 -0.000884187)
(-0.0110316 0.0014973 0.000231314)
(-0.00788141 0.000528818 9.87183e-05)
(-0.00463363 0.00381882 -0.000216765)
(-0.00605034 0.00458455 -0.000601033)
(-0.00580327 0.00427024 -0.0016108)
(-0.00468495 0.00262206 -0.00120036)
(-0.00964094 0.00214531 0.000134156)
(-0.00492061 0.00367574 -0.000287058)
(-0.00499379 0.00380163 -0.000396828)
(-0.00499217 0.0038031 -0.000396944)
(-0.00958701 0.00196802 -0.000102091)
(-0.0038012 0.00216787 -0.0012614)
(-0.0042596 0.00356378 -0.000329943)
(-0.00705435 0.00587597 -0.000116445)
(-0.00992881 0.00200617 0.00096912)
(-0.011354 0.00206311 0.000570032)
(-0.00976111 0.00258432 0.000353039)
(-0.0104116 0.00240139 0.000194817)
(-0.0105151 0.00271366 0.000380569)
(-0.0115219 0.00191564 0.000381128)
(-0.0105573 0.00221436 0.000109516)
(-0.0105065 0.00253443 0.000441217)
(-0.00427356 0.00338748 -0.00019629)
(-0.00583259 0.0041049 -0.000723627)
(-0.00748642 0.00604332 6.54039e-05)
(-0.00304514 0.00256012 -7.78293e-05)
(-0.00481831 0.00402715 -0.000119901)
(-0.00481685 0.00402815 -0.000119755)
(-0.00481666 0.00402732 -0.000119792)
(-0.00653677 0.00376892 0.000750981)
(-0.00427402 0.00371317 -0.000102225)
(-0.00704857 0.00561444 -0.000186709)
(-0.00456897 0.00381458 0.000580655)
(-0.00655674 0.00536496 -0.000359459)
(-0.00530589 0.000281337 -0.00166068)
(-0.004107 0.00318309 -8.86382e-05)
(-0.00410649 0.00318327 -8.87589e-05)
(-0.00429388 0.00326505 -7.79915e-05)
(-0.00537997 0.000341492 -0.000387844)
(-0.00500076 0.000444115 -0.00030205)
(-0.00570034 0.000457702 -0.000472358)
(-0.00546219 0.000468698 -0.0003815)
(-0.00608812 0.000642413 0.000256917)
(-0.00645806 0.000700956 0.000124836)
(-0.00691999 0.000456498 -0.000139691)
(-0.00696538 0.00066782 -0.000153694)
(-0.00697532 0.000608899 -3.69869e-05)
(-0.00683198 0.000591342 -6.83744e-05)
(-0.00689954 0.000595608 5.98871e-05)
(-0.00621772 0.00103694 -9.18993e-07)
(-0.00505789 0.000432576 -0.000328738)
(-0.0058208 0.000438763 -0.000392789)
(-0.00574965 0.000490812 -0.000326149)
(-0.00602479 0.000628817 -0.000396103)
(-0.00668221 0.000675604 -0.00026491)
(-0.00620836 0.000642014 -0.000315398)
(-0.00615221 0.000483365 -0.000396389)
(-0.00662967 0.000588003 -0.000202922)
(-0.00629626 0.000538556 -0.000279117)
(-0.00690235 0.000562798 0.00023262)
(-0.00698453 0.000169854 0.000226982)
(-0.00576809 0.000303791 0.000499724)
(-0.00955123 0.00505807 -0.00664126)
(-0.00987191 0.00109626 -0.000288068)
(-0.00764193 0.000184781 0.000162571)
(-0.00870576 0.000222509 -7.15549e-05)
(-0.0063043 -0.00178086 0.0016265)
(-0.00608131 0.00233608 0.00322766)
(-0.00443095 0.00117885 -0.00011042)
(-0.00520422 0.000473621 -3.14231e-06)
(-0.000883931 0.00136152 0.000357478)
(-0.00329975 0.00250227 0.000912078)
(-0.00935191 0.000820609 0.000279733)
(-0.00579912 0.000468841 0.00086736)
(-0.00562308 0.000402506 0.000897211)
(-0.00136091 0.00105174 0.000707476)
(-0.00540119 0.000376285 0.00100979)
(-0.00431796 0.000565353 0.000848549)
(-0.00298115 0.00339792 -0.000228101)
(-0.00329556 0.00316301 0.000375322)
(-0.00014842 0.000319971 0.000136277)
(-0.000677763 0.000350122 0.000423649)
(3.35533e-05 0.00014839 0.000274791)
(-0.000544941 0.000114855 0.000498372)
(-0.000887755 0.000246678 0.000500109)
(-0.000567471 0.00219192 0.00284558)
(-0.000944109 0.00322975 -0.000537615)
(-0.000313489 0.0023222 0.00359032)
(-0.000626744 0.00403105 -0.00119941)
(-0.000812282 0.00199425 0.000785437)
(-0.00960999 0.000641703 1.24867e-05)
(-0.00565241 0.000511421 0.000760657)
(-0.0053343 0.000427015 0.000718367)
(-0.00468785 0.000407696 0.000844961)
(-0.000882852 -0.00017537 0.000970872)
(-0.00531913 0.000558114 0.00111999)
(-0.00131982 2.78879e-05 0.00385187)
(-0.00025604 -0.000226858 0.00100354)
(-0.00143632 0.00153579 0.00161951)
(-0.00549057 0.00042857 0.00102272)
(-0.00549871 0.000503671 0.00107601)
(-0.000721852 0.00139234 -0.000107109)
(-0.00315488 0.0035113 -0.000250705)
(-0.000818072 0.0010054 -0.000108074)
(-0.00306166 0.00358667 -0.000199655)
(-0.000713182 0.00203582 0.0001731)
(-0.00716887 0.000784898 4.85737e-05)
(-0.00916879 0.000594928 -0.00018557)
(-0.00905826 0.000655473 -0.000113095)
(-0.0129001 0.00116096 -7.0697e-05)
(-0.00964353 0.00108825 -0.000290007)
(-0.00911676 0.000644259 -0.000137862)
(-0.00953795 0.00100086 -4.38895e-05)
(-0.012693 0.00130412 0.000371845)
(-0.00977171 0.00118607 5.34057e-05)
(-0.00910171 0.000706313 -7.39204e-05)
(-0.00933046 0.00090771 3.09168e-05)
(-0.00945375 0.00102121 1.22516e-05)
(-0.00434392 0.000636735 -0.000435647)
(-0.0122651 0.00544119 -0.00596121)
(-0.0115347 0.00103989 -0.000542239)
(-0.00571771 0.00371949 0.00191982)
(-0.00722862 0.00775893 -0.000304955)
(-0.00738493 0.00255852 0.00175441)
(-0.00946188 0.00521219 0.00334716)
(-0.00798674 0.00492127 0.00530346)
(-0.0115541 0.000172071 -0.0018057)
(-0.0119981 -0.000479659 -0.00194242)
(-0.0132704 2.2287e-06 -0.000832791)
(-0.0123827 -0.000397204 -0.00167333)
(-0.0160636 -8.64038e-05 -0.000798222)
(-0.0131572 -0.00185753 -0.00164452)
(-0.0125935 -0.00288091 -0.000285987)
(-0.00860597 -0.00377344 0.0009624)
(-0.00908585 -0.00605182 0.00378183)
(-0.0140827 -0.00135418 0.000213484)
(-0.0121554 -0.00306374 0.000581003)
(-0.0138019 -0.00196815 -0.00187908)
(-0.0142228 -0.00108183 -0.000216146)
(-0.0127987 -0.00238629 -0.000190412)
(-0.00989899 0.00121855 -0.000336878)
(-0.0107466 0.00103192 -0.000471767)
(-0.0100819 0.000908449 -0.000397689)
(-0.00882629 0.000935676 0.0026194)
(-0.0200582 -0.00027138 6.90897e-06)
(-0.0173461 -0.00120876 -0.00079968)
(-0.01781 -1.88858e-05 -0.000134169)
(-0.0170882 -0.000632795 0.00120083)
(-0.0148571 -0.000909714 0.000129647)
(-0.0176569 -0.000178644 0.000312522)
(-0.0147999 -0.000763472 -0.000297384)
(-0.0169087 -9.88581e-05 -0.000204516)
(-0.013094 0.00659082 -0.00574234)
(-0.0180743 0.0038847 -0.00697069)
(-0.0117072 0.00447575 -0.0040848)
(-0.0151677 0.00560021 -0.00583548)
(-0.0199769 -0.000985784 0.000367261)
(-0.0204407 -0.00112333 -3.70477e-05)
(-0.0075383 0.00632823 -9.3151e-05)
(-0.00851254 0.00660326 0.000393011)
(-0.0106121 0.00134634 -0.000389229)
(-0.0112068 0.00138205 -0.000499704)
(-0.0101507 0.00185438 -0.000103601)
(-0.00437374 0.00364494 -0.000199709)
(-0.00562602 0.00442898 0.000784282)
(-0.0189267 0.00037375 -0.000107088)
(-0.0200104 -0.00104241 -2.79089e-05)
(-0.0182408 7.94667e-05 -0.00028656)
(-0.00158513 0.00100175 7.82841e-05)
(-0.0243012 -0.00220173 -0.00589628)
(-0.00550139 -0.00183563 -0.00381086)
(-0.00299462 0.00205382 0.00011888)
(-0.00511644 0.00118017 -0.00255948)
(-0.00776385 0.00167525 -0.000506074)
(-0.0079897 -0.000508832 -0.00120339)
(-0.00690618 0.000185931 -0.000598833)
(-0.00759637 0.00170981 -0.000779815)
(-0.00304175 0.00239603 0.00500914)
(-0.00545512 0.00532358 0.00499937)
(-0.0114827 0.00317721 -0.00127577)
(-0.00850204 0.00198532 -0.000520683)
(-0.0103634 0.00275285 -0.00122512)
(-0.00850618 0.00202427 -0.000936089)
(-0.0111202 0.00319573 -0.00150499)
(-0.00303207 0.0026754 -0.00287777)
(-0.00376289 0.00616931 -0.00227403)
(-0.00166035 0.00134328 0.00124789)
(-0.00130341 0.00114126 0.000481076)
(-0.00323198 0.00238396 0.00171038)
(-0.00509881 0.0039619 0.00101607)
(-0.00255801 0.00220945 0.000551709)
(-0.0071054 0.00330311 0.00403748)
(-0.00823251 0.000577414 -1.76455e-05)
(-0.0097236 0.000842472 -0.000393964)
(-0.0113889 0.000648516 -0.00101452)
(-0.0088136 -0.000133128 -0.000311596)
(-0.00906218 1.88907e-05 -0.000591435)
(-0.00895577 -0.000357183 0.000129822)
(-0.010577 -0.000652735 0.00105249)
(-0.020698 0.00266265 0.00364018)
(-0.0137983 0.00260116 -0.00162541)
(-0.00139786 0.00120146 -0.00367386)