/*--------------------------------*- C++ -*----------------------------------*\
  =========                 |
  \\      /  F ield         | OpenFOAM: The Open Source CFD Toolbox
   \\    /   O peration     | Website:  https://openfoam.org
    \\  /    A nd           | Version:  10
     \\/     M anipulation  |
\*---------------------------------------------------------------------------*/
FoamFile
{
    format      ascii;
    class       volScalarField;
    location    "0.05";
    object      k;
}
// * * * * * * * * * * * * * * * * * * * * * * * * * * * * * * * * * * * * * //

dimensions      [0 2 -2 0 0 0 0];

internalField   nonuniform List<scalar> 
116798
(
0.153203
0.221317
0.206323
0.185147
0.176211
0.17461
0.175529
0.176211
0.17579
0.174633
0.173338
0.172264
0.171712
0.171448
0.171068
0.170158
0.168895
0.16791
0.167525
0.167793
0.168685
0.170186
0.172264
0.175016
0.178425
0.182749
0.187354
0.19288
0.195838
0.188918
0.177577
0.218231
0.183997
0.170081
0.166568
0.16614
0.165189
0.162926
0.159811
0.156468
0.153289
0.150422
0.147922
0.145876
0.144388
0.143453
0.143024
0.142998
0.143306
0.143931
0.144876
0.146173
0.147824
0.149914
0.152324
0.1553
0.157995
0.161042
0.160839
0.15763
0.201101
0.219284
0.195846
0.185703
0.18093
0.17553
0.168877
0.161981
0.155811
0.150708
0.146654
0.143478
0.141001
0.139105
0.13777
0.136909
0.136469
0.136351
0.136499
0.136911
0.137592
0.138568
0.139807
0.141388
0.143095
0.145253
0.146848
0.149048
0.147637
0.147532
0.222922
0.211717
0.20194
0.190445
0.179595
0.1686
0.15918
0.151793
0.146161
0.141848
0.138523
0.135945
0.133923
0.13233
0.131158
0.130354
0.129896
0.129733
0.129811
0.13011
0.130608
0.131329
0.132203
0.133335
0.134448
0.13597
0.136729
0.138372
0.136187
0.137623
0.211397
0.194853
0.188042
0.17493
0.163411
0.153822
0.146588
0.141112
0.136914
0.133646
0.131081
0.129049
0.127426
0.12612
0.125149
0.124474
0.124074
0.123902
0.123912
0.124086
0.124403
0.124887
0.125458
0.126239
0.126911
0.127985
0.128179
0.12946
0.127364
0.129036
0.177052
0.170728
0.163025
0.15412
0.146623
0.140475
0.135691
0.131921
0.128918
0.126514
0.124577
0.123011
0.121737
0.120688
0.11989
0.119328
0.118984
0.118819
0.118788
0.118878
0.119067
0.119384
0.119738
0.120284
0.120636
0.121432
0.121273
0.122332
0.120478
0.122054
0.147823
0.148738
0.141759
0.137929
0.133485
0.129876
0.126777
0.12425
0.122142
0.120408
0.118973
0.117789
0.116806
0.115982
0.115338
0.114883
0.1146
0.114452
0.1144
0.114437
0.114538
0.114738
0.114944
0.115319
0.115473
0.116076
0.115738
0.116605
0.115135
0.116485
0.129833
0.133023
0.127538
0.126535
0.123641
0.121639
0.119612
0.11796
0.116499
0.115272
0.114226
0.113346
0.112599
0.111961
0.111446
0.111085
0.110856
0.110729
0.11067
0.110675
0.110722
0.110846
0.110956
0.111219
0.111253
0.111726
0.111298
0.112019
0.110974
0.112057
0.118803
0.122612
0.118242
0.118392
0.116296
0.115274
0.113917
0.112864
0.111856
0.111002
0.110248
0.109602
0.109041
0.108554
0.108147
0.107865
0.107685
0.107579
0.107522
0.107511
0.107526
0.107602
0.10765
0.107842
0.107804
0.108183
0.107732
0.108331
0.107724
0.108525
0.11157
0.115611
0.111988
0.112431
0.110799
0.110362
0.109416
0.108766
0.108069
0.107483
0.106945
0.106475
0.106058
0.105689
0.105373
0.105155
0.105016
0.104932
0.104881
0.104864
0.104861
0.104909
0.104923
0.105066
0.104989
0.105302
0.104868
0.105358
0.105177
0.105698
0.106552
0.110707
0.107613
0.107997
0.106658
0.106561
0.105871
0.105486
0.104999
0.104603
0.10422
0.103882
0.103574
0.103297
0.103054
0.102889
0.102784
0.102719
0.102677
0.102659
0.10265
0.10268
0.102675
0.102784
0.102692
0.102956
0.102557
0.102953
0.103166
0.103426
0.102932
0.107154
0.104457
0.104656
0.103515
0.103607
0.103083
0.10287
0.102522
0.102258
0.101985
0.101744
0.101518
0.101312
0.101128
0.101003
0.100926
0.100878
0.100846
0.100831
0.100819
0.10084
0.100824
0.100912
0.100819
0.101045
0.100694
0.101004
0.101572
0.101593
0.10025
0.104512
0.102142
0.102109
0.101118
0.101296
0.100887
0.100787
0.100532
0.100357
0.100162
0.09999
0.0998253
0.0996729
0.0995341
0.0994426
0.0993875
0.0993534
0.0993301
0.0993187
0.099308
0.099323
0.0993048
0.0993778
0.099295
0.0994825
0.0991873
0.0994207
0.100294
0.10011
0.0982217
0.102505
0.100422
0.100147
0.0992827
0.0994792
0.0991497
0.0991252
0.0989372
0.0988224
0.0986802
0.098558
0.0984375
0.0983254
0.098222
0.0981553
0.0981171
0.098094
0.098078
0.0980705
0.0980615
0.0980744
0.0980585
0.0981254
0.0980532
0.0982042
0.097971
0.0981297
0.0992776
0.0989076
0.0966638
0.100946
0.0990798
0.0986162
0.0978688
0.0980518
0.0977737
0.0977936
0.0976569
0.0975858
0.0974811
0.0973929
0.0973036
0.0972209
0.0971443
0.0970964
0.0970708
0.097056
0.0970457
0.0970413
0.0970361
0.0970498
0.0970428
0.0970994
0.0970378
0.0971551
0.096988
0.097075
0.0984647
0.0979306
0.0954525
0.0997255
0.0980239
0.0974168
0.0967702
0.0969287
0.0966857
0.0967235
0.0966217
0.0965833
0.0965096
0.0964475
0.0963813
0.0963198
0.0962629
0.0962284
0.0962116
0.0962027
0.0961974
0.0961975
0.0961984
0.0962155
0.0962114
0.0962578
0.0962041
0.0962968
0.0961934
0.0962141
0.0978164
0.0971369
0.0945121
0.0987617
0.0971949
0.0964704
0.0959136
0.0960388
0.0958313
0.0958691
0.0957879
0.0957693
0.0957182
0.0956771
0.0956302
0.0955858
0.0955438
0.0955193
0.0955094
0.095506
0.0955062
0.0955112
0.0955166
0.0955317
0.0955316
0.0955613
0.0955241
0.0955935
0.0955509
0.0955109
0.0972989
0.0964915
0.0937753
0.0979938
0.0965376
0.0957202
0.0952464
0.0953305
0.0951546
0.0951913
0.0951224
0.0951133
0.0950764
0.0950496
0.0950171
0.0949865
0.0949575
0.0949417
0.0949381
0.0949395
0.0949437
0.0949508
0.0949581
0.0949714
0.0949679
0.0949901
0.0949705
0.0950163
0.0950337
0.0949373
0.0968856
0.0959667
0.0931916
0.0973788
0.0960152
0.0951214
0.0947244
0.0947657
0.0946173
0.0946501
0.0945945
0.0945898
0.0945611
0.0945425
0.0945203
0.0945
0.0944804
0.0944718
0.0944728
0.0944779
0.0944845
0.0944921
0.0944988
0.0945055
0.0945074
0.0945232
0.0945193
0.0945427
0.0946192
0.0944697
0.0965562
0.0955394
0.092728
0.0968849
0.0955987
0.0946417
0.0943141
0.0943158
0.0941904
0.0942155
0.0941711
0.094171
0.0941488
0.094136
0.094121
0.0941069
0.0940938
0.0940898
0.0940937
0.0941002
0.0941069
0.0941125
0.0941197
0.0941258
0.094133
0.0941406
0.0941514
0.0941556
0.0942876
0.0940887
0.0962943
0.0951907
0.0923585
0.0964864
0.0952659
0.0942558
0.0939902
0.0939553
0.0938536
0.0938672
0.0938311
0.0938327
0.0938164
0.0938087
0.0937975
0.0937878
0.0937793
0.0937783
0.0937834
0.0937899
0.0937973
0.0938038
0.0938121
0.093817
0.0938271
0.0938257
0.0938529
0.0938403
0.0940239
0.093778
0.0960864
0.0949066
0.0920632
0.0961641
0.094999
0.0939451
0.0937345
0.0936652
0.0935865
0.0935902
0.0935598
0.0935605
0.0935479
0.093543
0.0935351
0.0935289
0.0935238
0.0935247
0.0935307
0.0935375
0.0935457
0.0935523
0.0935614
0.0935635
0.0935762
0.0935681
0.0936119
0.0935832
0.0938148
0.0935248
0.0959225
0.094675
0.0918271
0.0959025
0.0947848
0.0936944
0.0935334
0.0934303
0.093374
0.0933684
0.0933449
0.0933439
0.0933327
0.093329
0.0933234
0.0933196
0.0933169
0.0933194
0.0933261
0.0933332
0.0933414
0.0933472
0.0933558
0.0933553
0.0933721
0.0933581
0.0934188
0.0933736
0.0936493
0.0933188
0.0957938
0.0944866
0.091638
0.0956894
0.0946129
0.093492
0.0933762
0.0932408
0.0932043
0.0931906
0.0931737
0.0931709
0.0931619
0.0931586
0.0931539
0.0931514
0.0931502
0.0931535
0.0931602
0.0931668
0.0931741
0.0931787
0.093188
0.0931856
0.0932066
0.093188
0.0932638
0.0932026
0.0935191
0.0931515
0.0956926
0.0943332
0.0914863
0.0955156
0.0944755
0.0933282
0.0932534
0.093088
0.0930688
0.0930466
0.0930373
0.093033
0.0930255
0.0930222
0.0930186
0.0930168
0.0930161
0.0930192
0.0930253
0.0930313
0.0930384
0.0930421
0.093052
0.0930478
0.0930738
0.0930509
0.0931399
0.0930627
0.0934168
0.0930153
0.095614
0.0942085
0.0913645
0.0953742
0.094366
0.0931961
0.0931574
0.092965
0.0929615
0.0929296
0.0929275
0.0929227
0.0929173
0.0929138
0.0929105
0.0929089
0.0929084
0.0929113
0.0929168
0.0929221
0.0929286
0.0929314
0.0929421
0.0929374
0.0929687
0.0929397
0.0930406
0.0929482
0.093337
0.0929046
0.0955538
0.0941073
0.0912661
0.0952585
0.0942792
0.0930898
0.0930835
0.0928663
0.0928766
0.0928351
0.0928385
0.0928329
0.0928303
0.0928272
0.0928245
0.0928229
0.0928224
0.0928247
0.0928295
0.0928339
0.0928403
0.0928427
0.0928551
0.0928495
0.0928845
0.0928491
0.0929608
0.0928547
0.0932745
0.0928147
0.0955083
0.0940252
0.0911864
0.0951634
0.0942105
0.0930044
0.0930271
0.0927865
0.0928088
0.0927585
0.0927663
0.0927591
0.0927585
0.0927561
0.0927544
0.0927531
0.0927527
0.0927545
0.0927588
0.0927628
0.0927692
0.0927718
0.0927853
0.0927778
0.0928159
0.0927745
0.0928951
0.092777
0.0932274
0.0927414
0.0954744
0.0939587
0.0911222
0.0950849
0.0941565
0.0929349
0.0929816
0.0927221
0.0927557
0.0926966
0.0927092
0.0926995
0.0927006
0.0926983
0.0926974
0.0926966
0.0926966
0.0926985
0.0927026
0.0927065
0.0927131
0.0927149
0.0927291
0.0927194
0.0927607
0.0927122
0.0928426
0.0927121
0.0931938
0.0926817
0.0954498
0.0939048
0.0910704
0.0950199
0.0941139
0.0928762
0.0929455
0.0926702
0.0927142
0.0926469
0.0926642
0.092652
0.0926544
0.0926519
0.0926519
0.0926514
0.0926518
0.0926538
0.0926578
0.0926613
0.0926679
0.0926691
0.0926839
0.0926717
0.0927155
0.0926608
0.0928002
0.0926577
0.0931658
0.0926333
0.0954324
0.0938612
0.0910288
0.0949659
0.0940805
0.0928266
0.0929177
0.0926279
0.092682
0.0926067
0.0926286
0.0926141
0.0926178
0.0926149
0.0926153
0.092615
0.0926157
0.0926179
0.0926219
0.0926252
0.0926318
0.0926321
0.092647
0.0926321
0.0926789
0.0926183
0.0927666
0.0926131
0.0931413
0.0925943
0.0954206
0.093826
0.0909949
0.0949211
0.0940544
0.092786
0.0928956
0.0925938
0.092657
0.0925742
0.0926005
0.0925837
0.0925889
0.0925856
0.0925864
0.0925862
0.0925871
0.0925893
0.0925931
0.092596
0.0926023
0.0926015
0.0926168
0.0925994
0.0926492
0.0925833
0.0927399
0.0925764
0.0931227
0.0925628
0.0954132
0.0937975
0.0909671
0.0948837
0.0940339
0.0927526
0.0928781
0.0925661
0.0926378
0.0925477
0.0925784
0.0925593
0.0925658
0.0925621
0.0925633
0.0925631
0.0925642
0.0925662
0.0925698
0.0925721
0.0925782
0.0925765
0.0925922
0.0925726
0.0926252
0.0925545
0.0927189
0.0925463
0.0931092
0.0925373
0.0954091
0.0937746
0.0909447
0.0948524
0.0940171
0.0927251
0.0928646
0.0925436
0.0926234
0.0925261
0.092561
0.0925396
0.0925476
0.0925434
0.0925449
0.0925446
0.0925456
0.0925475
0.0925508
0.0925527
0.0925586
0.092556
0.0925723
0.0925503
0.0926061
0.0925307
0.0927029
0.0925216
0.0930997
0.0925167
0.0954075
0.0937561
0.0909267
0.0948261
0.0940028
0.0927021
0.0928541
0.0925255
0.0926121
0.0925087
0.0925472
0.0925238
0.092533
0.0925284
0.0925302
0.0925298
0.0925309
0.0925325
0.0925356
0.0925371
0.0925428
0.0925393
0.0925561
0.0925321
0.0925906
0.0925113
0.09269
0.0925014
0.093093
0.0925
0.0954078
0.0937412
0.090912
0.094804
0.0939909
0.0926831
0.0928462
0.0925107
0.0926039
0.0924942
0.0925367
0.0925108
0.0925215
0.0925163
0.0925186
0.092518
0.092519
0.0925205
0.0925233
0.0925243
0.09253
0.0925256
0.0925432
0.0925169
0.0925786
0.0924951
0.0926803
0.0924847
0.0930886
0.0924865
0.0954095
0.0937294
0.0909001
0.0947854
0.093981
0.0926671
0.0928404
0.0924988
0.0925974
0.0924826
0.0925283
0.0925003
0.0925122
0.0925066
0.0925092
0.0925085
0.0925096
0.0925108
0.0925134
0.0925141
0.0925197
0.0925145
0.0925326
0.0925043
0.0925687
0.0924817
0.0926728
0.092471
0.0930863
0.0924755
0.0954125
0.0937199
0.0908903
0.0947697
0.0939728
0.0926537
0.0928363
0.0924891
0.0925926
0.092473
0.0925222
0.0924917
0.0925049
0.0924988
0.0925017
0.0925009
0.092502
0.092503
0.0925054
0.0925057
0.0925113
0.0925052
0.0925242
0.0924935
0.092561
0.0924703
0.0926677
0.0924597
0.0930849
0.0924666
0.0954159
0.0937124
0.0908823
0.0947564
0.0939665
0.0926427
0.0928338
0.0924808
0.0925899
0.0924652
0.0925172
0.0924845
0.092499
0.0924922
0.0924955
0.0924947
0.0924957
0.0924966
0.0924989
0.0924989
0.0925044
0.0924975
0.0925171
0.0924845
0.0925548
0.0924607
0.092665
0.0924505
0.0930856
0.0924593
0.0954202
0.0937065
0.0908757
0.0947451
0.0939612
0.0926335
0.0928325
0.0924736
0.0925881
0.0924588
0.0925136
0.0924784
0.0924942
0.0924868
0.0924905
0.0924894
0.0924906
0.0924913
0.0924935
0.0924931
0.0924987
0.0924909
0.0925115
0.0924766
0.0925501
0.0924524
0.0926636
0.092443
0.093087
0.0924536
0.0954248
0.0937017
0.0908704
0.0947354
0.0939572
0.0926257
0.0928322
0.0924674
0.092587
0.0924536
0.0925108
0.0924732
0.0924903
0.0924823
0.0924863
0.0924851
0.0924863
0.0924869
0.092489
0.0924883
0.092494
0.0924854
0.0925068
0.0924699
0.0925465
0.0924454
0.0926621
0.0924369
0.0930887
0.092449
0.0954296
0.0936979
0.090866
0.0947271
0.0939539
0.0926191
0.0928325
0.0924623
0.0925865
0.0924492
0.0925089
0.0924687
0.0924872
0.0924785
0.0924828
0.0924815
0.0924828
0.0924832
0.0924852
0.0924842
0.09249
0.0924806
0.0925031
0.0924639
0.0925437
0.0924394
0.0926613
0.0924319
0.0930908
0.0924453
0.0954345
0.093695
0.0908625
0.09472
0.0939513
0.0926136
0.0928333
0.0924581
0.0925864
0.0924456
0.0925074
0.0924649
0.0924846
0.0924752
0.0924799
0.0924784
0.0924798
0.09248
0.092482
0.0924806
0.0924867
0.0924764
0.0924999
0.0924586
0.0925416
0.0924346
0.0926611
0.0924279
0.093093
0.0924424
0.0954393
0.0936926
0.0908595
0.0947138
0.0939494
0.092609
0.0928345
0.0924546
0.0925867
0.0924426
0.0925064
0.0924615
0.0924825
0.0924723
0.0924774
0.0924758
0.0924772
0.0924773
0.0924792
0.0924776
0.0924838
0.0924727
0.0924973
0.0924538
0.09254
0.0924305
0.0926612
0.0924246
0.0930954
0.09244
0.095444
0.0936908
0.0908572
0.0947086
0.0939479
0.0926051
0.0928361
0.0924516
0.0925873
0.09244
0.0925057
0.0924585
0.0924808
0.0924698
0.0924753
0.0924734
0.0924749
0.0924749
0.0924768
0.0924748
0.0924813
0.0924693
0.0924951
0.0924497
0.0925388
0.0924271
0.0926616
0.0924218
0.0930977
0.0924381
0.0954485
0.0936894
0.0908552
0.094704
0.0939469
0.0926018
0.0928377
0.0924491
0.092588
0.0924378
0.0925059
0.092456
0.0924795
0.0924676
0.0924735
0.0924714
0.0924729
0.0924727
0.0924746
0.0924723
0.0924791
0.0924663
0.0924933
0.092446
0.0925386
0.0924243
0.0926622
0.0924196
0.0931
0.0924367
0.0954527
0.0936883
0.0908536
0.0947001
0.0939461
0.092599
0.0928394
0.0924469
0.092589
0.0924358
0.0925063
0.0924538
0.0924784
0.0924656
0.0924719
0.0924696
0.0924712
0.0924709
0.0924728
0.0924702
0.0924773
0.0924636
0.0924919
0.0924428
0.0925387
0.092422
0.0926631
0.0924177
0.0931021
0.0924355
0.0954566
0.0936875
0.0908523
0.0946966
0.0939455
0.0925966
0.0928409
0.0924451
0.09259
0.0924341
0.0925067
0.0924518
0.0924776
0.0924639
0.0924706
0.092468
0.0924697
0.0924692
0.0924711
0.0924682
0.0924757
0.0924611
0.0924907
0.09244
0.0925391
0.0924202
0.0926641
0.0924161
0.0931041
0.0924346
0.0954603
0.0936869
0.0908513
0.0946937
0.0939451
0.0925945
0.0928422
0.0924436
0.092591
0.0924326
0.0925073
0.09245
0.0924769
0.0924623
0.0924695
0.0924666
0.0924684
0.0924677
0.0924697
0.0924664
0.0924744
0.0924587
0.0924898
0.0924375
0.0925396
0.0924186
0.0926651
0.0924148
0.093106
0.0924339
0.0954637
0.0936864
0.0908504
0.0946911
0.0939447
0.0925927
0.0928435
0.0924422
0.0925921
0.0924313
0.092508
0.0924483
0.0924763
0.0924608
0.0924685
0.0924653
0.0924671
0.0924663
0.0924684
0.0924648
0.0924732
0.0924567
0.0924891
0.0924354
0.0925403
0.0924173
0.0926662
0.0924136
0.0931078
0.0924334
0.0954668
0.0936861
0.0908497
0.0946888
0.0939444
0.0925912
0.0928446
0.0924411
0.0925932
0.0924302
0.0925088
0.0924467
0.092476
0.0924595
0.0924676
0.0924641
0.0924661
0.0924651
0.0924673
0.0924634
0.0924722
0.0924548
0.0924887
0.0924337
0.092541
0.0924163
0.0926673
0.0924126
0.0931094
0.0924329
0.0954697
0.0936859
0.0908492
0.0946868
0.0939441
0.0925899
0.0928457
0.0924402
0.0925942
0.0924292
0.0925096
0.0924454
0.092476
0.0924584
0.0924669
0.092463
0.0924652
0.092464
0.0924663
0.0924621
0.0924715
0.0924532
0.0924887
0.0924321
0.0925418
0.0924155
0.0926684
0.0924118
0.093111
0.0924326
0.0954722
0.0936858
0.0908487
0.0946851
0.0939439
0.0925887
0.0928467
0.0924393
0.0925952
0.0924284
0.0925105
0.0924441
0.092476
0.0924574
0.0924663
0.0924621
0.0924644
0.0924631
0.0924655
0.0924609
0.0924708
0.0924517
0.0924888
0.0924309
0.0925426
0.0924148
0.0926694
0.0924111
0.0931124
0.0924324
0.0954746
0.0936857
0.0908483
0.0946836
0.0939437
0.0925877
0.0928475
0.0924386
0.0925962
0.0924277
0.0925113
0.0924428
0.0924761
0.0924564
0.0924658
0.0924613
0.0924637
0.0924622
0.0924649
0.0924599
0.0924704
0.0924503
0.0924889
0.0924297
0.0925434
0.0924142
0.0926704
0.0924105
0.0931137
0.0924322
0.0954767
0.0936856
0.090848
0.0946822
0.0939435
0.0925869
0.0928483
0.092438
0.0925971
0.0924271
0.0925122
0.0924417
0.0924762
0.0924556
0.0924654
0.0924606
0.0924632
0.0924615
0.0924643
0.092459
0.09247
0.0924491
0.092489
0.0924288
0.0925442
0.0924137
0.0926713
0.0924099
0.0931148
0.0924321
0.0954786
0.0936856
0.0908477
0.0946811
0.0939433
0.0925862
0.0928489
0.0924375
0.092598
0.0924266
0.092513
0.0924407
0.0924764
0.0924547
0.0924652
0.09246
0.0924627
0.0924608
0.0924638
0.0924581
0.0924697
0.0924479
0.0924893
0.0924279
0.0925449
0.0924134
0.0926721
0.0924094
0.0931159
0.092432
0.0954803
0.0936856
0.0908475
0.0946802
0.0939431
0.0925855
0.0928495
0.0924371
0.0925988
0.0924262
0.0925138
0.0924399
0.0924767
0.092454
0.092465
0.0924594
0.0924623
0.0924602
0.0924634
0.0924574
0.0924696
0.0924469
0.0924896
0.0924272
0.0925456
0.0924131
0.0926727
0.092409
0.0931168
0.0924319
0.0954818
0.0936856
0.0908473
0.0946793
0.093943
0.092585
0.0928499
0.0924367
0.0925995
0.0924258
0.0925146
0.0924391
0.092477
0.0924533
0.0924649
0.0924589
0.092462
0.0924597
0.0924631
0.0924567
0.0924695
0.092446
0.09249
0.0924266
0.0925462
0.0924128
0.0926734
0.0924087
0.0931177
0.0924319
0.0954832
0.0936857
0.0908472
0.0946786
0.0939428
0.0925845
0.0928503
0.0924364
0.0926002
0.0924255
0.0925153
0.0924384
0.0924773
0.0924527
0.0924649
0.0924584
0.0924617
0.0924593
0.0924628
0.0924561
0.0924695
0.0924451
0.0924904
0.092426
0.0925468
0.0924126
0.0926739
0.0924084
0.0931184
0.0924318
0.0954844
0.0936857
0.0908471
0.0946779
0.0939427
0.0925841
0.0928506
0.0924362
0.0926007
0.0924253
0.092516
0.0924377
0.0924776
0.0924522
0.0924648
0.092458
0.0924616
0.0924589
0.0924627
0.0924555
0.0924695
0.0924443
0.0924908
0.0924256
0.0925473
0.0924124
0.0926743
0.0924081
0.093119
0.0924318
0.0954854
0.0936858
0.090847
0.0946774
0.0939426
0.0925838
0.0928508
0.092436
0.0926011
0.0924251
0.0925165
0.0924372
0.092478
0.0924517
0.0924648
0.0924576
0.0924615
0.0924585
0.0924625
0.092455
0.0924695
0.0924437
0.0924911
0.0924252
0.0925477
0.0924123
0.0926747
0.0924079
0.0931195
0.0924318
0.0954863
0.0936858
0.0908469
0.0946769
0.0939425
0.0925834
0.0928509
0.0924358
0.0926014
0.0924249
0.092517
0.0924368
0.0924782
0.0924512
0.0924648
0.0924573
0.0924614
0.0924582
0.0924625
0.0924546
0.0924696
0.0924431
0.0924914
0.0924249
0.0925481
0.0924122
0.0926751
0.0924077
0.09312
0.0924318
0.0954871
0.0936859
0.0908468
0.0946765
0.0939423
0.0925832
0.092851
0.0924356
0.0926016
0.0924247
0.0925174
0.0924364
0.0924785
0.0924508
0.0924648
0.092457
0.0924613
0.0924579
0.0924624
0.0924542
0.0924696
0.0924425
0.0924917
0.0924246
0.0925484
0.0924121
0.0926753
0.0924075
0.0931204
0.0924318
0.0954878
0.0936859
0.0908468
0.0946761
0.0939421
0.0925829
0.0928509
0.0924355
0.0926017
0.0924246
0.0925176
0.0924361
0.0924787
0.0924505
0.0924648
0.0924567
0.0924612
0.0924577
0.0924624
0.0924539
0.0924697
0.0924421
0.0924919
0.0924244
0.0925486
0.092412
0.0926755
0.0924074
0.0931207
0.0924318
0.0954883
0.093686
0.0908467
0.0946759
0.0939418
0.0925827
0.0928507
0.0924354
0.0926017
0.0924245
0.0925178
0.0924359
0.0924788
0.0924502
0.0924648
0.0924565
0.0924612
0.0924575
0.0924623
0.0924536
0.0924697
0.0924418
0.0924921
0.0924242
0.0925487
0.092412
0.0926756
0.0924073
0.0931208
0.0924318
0.0954887
0.093686
0.0908467
0.0946757
0.0939414
0.0925825
0.0928504
0.0924353
0.0926016
0.0924244
0.0925178
0.0924357
0.0924789
0.09245
0.0924649
0.0924564
0.0924612
0.0924573
0.0924623
0.0924534
0.0924697
0.0924416
0.0924921
0.0924241
0.0925488
0.0924119
0.0926756
0.0924072
0.0931209
0.0924318
0.0954891
0.093686
0.0908466
0.0946756
0.0939409
0.0925824
0.0928499
0.0924352
0.0926013
0.0924243
0.0925177
0.0924356
0.0924789
0.0924499
0.0924648
0.0924563
0.0924612
0.0924572
0.0924623
0.0924533
0.0924697
0.0924414
0.0924921
0.092424
0.0925486
0.0924119
0.0926754
0.0924072
0.0931208
0.0924318
0.0954892
0.0936861
0.0908466
0.0946755
0.0939402
0.0925822
0.0928492
0.0924351
0.0926008
0.0924242
0.0925174
0.0924356
0.0924788
0.0924499
0.0924648
0.0924562
0.0924611
0.0924571
0.0924622
0.0924532
0.0924696
0.0924414
0.092492
0.0924239
0.0925484
0.0924118
0.0926751
0.0924071
0.0931205
0.0924318
0.0954891
0.0936861
0.0908466
0.0946756
0.0939393
0.0925821
0.0928482
0.0924351
0.0926001
0.0924241
0.0925169
0.0924357
0.0924786
0.09245
0.0924648
0.0924562
0.0924611
0.0924571
0.0924622
0.0924532
0.0924694
0.0924415
0.0924917
0.0924239
0.0925479
0.0924117
0.0926747
0.0924071
0.0931201
0.0924317
0.0954888
0.0936861
0.0908466
0.0946757
0.0939382
0.0925819
0.0928469
0.0924351
0.0925991
0.092424
0.0925162
0.0924358
0.0924783
0.0924501
0.0924647
0.0924562
0.0924611
0.0924571
0.0924621
0.0924533
0.0924692
0.0924417
0.0924913
0.092424
0.0925473
0.0924116
0.092674
0.0924071
0.0931194
0.0924317
0.0954884
0.093686
0.0908467
0.094676
0.0939367
0.0925818
0.0928453
0.0924351
0.092598
0.0924241
0.0925153
0.0924362
0.0924779
0.0924504
0.0924646
0.0924564
0.0924611
0.0924572
0.092462
0.0924534
0.092469
0.092442
0.0924908
0.092424
0.0925465
0.0924116
0.0926732
0.0924071
0.0931185
0.0924317
0.0954877
0.0936861
0.0908468
0.0946763
0.0939352
0.0925817
0.0928434
0.0924351
0.0925965
0.0924241
0.0925141
0.0924366
0.0924775
0.0924507
0.0924645
0.0924565
0.0924611
0.0924574
0.0924619
0.0924538
0.0924687
0.0924425
0.0924902
0.0924243
0.0925456
0.0924115
0.0926723
0.0924072
0.0931176
0.0924317
0.0954869
0.0936861
0.0908469
0.0946766
0.0939333
0.0925816
0.0928413
0.0924352
0.0925951
0.0924242
0.092513
0.0924372
0.0924769
0.0924511
0.0924644
0.0924567
0.0924611
0.0924575
0.0924619
0.0924539
0.0924685
0.092443
0.0924895
0.0924245
0.0925445
0.0924115
0.0926712
0.0924073
0.0931164
0.0924318
0.095486
0.0936861
0.0924354
0.092593
0.0924244
0.0925112
0.0924381
0.0924762
0.0924518
0.0924643
0.092457
0.0924611
0.0924578
0.0924617
0.0924545
0.092468
0.0924437
0.092489
0.0924248
0.0925436
0.0924115
0.0926703
0.0924075
0.0931154
0.0924318
0.095485
0.0936861
0.0925925
0.0924245
0.0925107
0.0924385
0.092476
0.092452
0.0924644
0.0924572
0.0924613
0.0924578
0.0924619
0.0924546
0.0924679
0.0924443
0.0924881
0.0924252
0.0925424
0.0924115
0.0926693
0.0924077
0.0931142
0.0924318
0.0954839
0.0936862
0.0925083
0.09244
0.0924747
0.0924531
0.092464
0.0924577
0.0924612
0.0924584
0.0924615
0.0924555
0.0924675
0.092445
0.0924881
0.0924254
0.0925424
0.0924116
0.0926691
0.0924079
0.0931136
0.0924318
0.0954828
0.0936862
0.0924583
0.092462
0.0924555
0.0924675
0.0924459
0.0924871
0.0924262
0.0925413
0.0924117
0.0926684
0.0924082
0.0931129
0.0924318
0.0954817
0.0936862
0.0924618
0.0924564
0.0924674
0.0924466
0.092487
0.0924264
0.0925418
0.0924119
0.0926688
0.0924084
0.0931128
0.0924318
0.0954807
0.0936863
0.0924574
0.0924671
0.0924478
0.0924864
0.0924271
0.0925415
0.0924122
0.0926685
0.0924088
0.0931122
0.0924318
0.0954794
0.0936863
0.0924673
0.0924486
0.092486
0.0924278
0.0925409
0.0924126
0.0926683
0.0924091
0.0931118
0.0924318
0.095478
0.0936864
0.0924286
0.0925404
0.0924129
0.0926677
0.0924096
0.0931109
0.0924319
0.0954762
0.0936864
0.2301
0.15481
0.152586
0.133018
0.121222
0.114009
0.109609
0.106974
0.105386
0.104345
0.103556
0.10288
0.102306
0.101924
0.101881
0.102209
0.10279
0.103465
0.104155
0.104854
0.105598
0.106428
0.107414
0.108598
0.11013
0.112001
0.114546
0.117406
0.121081
0.12909
0.229277
0.179463
0.157649
0.132065
0.118332
0.111293
0.10778
0.105977
0.10499
0.104399
0.104044
0.103851
0.103777
0.103763
0.103751
0.103734
0.103726
0.10376
0.103868
0.104075
0.104386
0.10484
0.10542
0.106212
0.107205
0.108373
0.110174
0.110645
0.113561
0.109708
0.235607
0.170402
0.143698
0.123536
0.114128
0.109561
0.107275
0.105966
0.105133
0.104546
0.10412
0.103804
0.103569
0.103401
0.103303
0.103281
0.103333
0.103455
0.10364
0.103893
0.104218
0.104629
0.10514
0.105731
0.106546
0.10719
0.10871
0.108488
0.111446
0.105968
0.240349
0.147434
0.128866
0.116871
0.111396
0.108532
0.106953
0.105876
0.105109
0.104526
0.104088
0.103761
0.103525
0.103368
0.10327
0.103226
0.103232
0.103292
0.103405
0.103577
0.103811
0.104108
0.104488
0.104893
0.105511
0.105805
0.106999
0.10629
0.108767
0.105519
0.240008
0.128752
0.118993
0.112857
0.109775
0.107775
0.106497
0.105517
0.104799
0.10424
0.103818
0.103495
0.103256
0.103085
0.102974
0.102921
0.102922
0.102973
0.103073
0.103218
0.103413
0.103647
0.103957
0.104234
0.104757
0.10483
0.10595
0.105183
0.107843
0.104518
0.20235
0.118557
0.11326
0.11029
0.10829
0.106791
0.105751
0.104921
0.104308
0.103823
0.103454
0.103171
0.102961
0.102812
0.102716
0.102663
0.102652
0.10268
0.102747
0.102852
0.102998
0.103167
0.10341
0.103582
0.104025
0.103936
0.104969
0.104172
0.106857
0.103941
0.158878
0.113214
0.109518
0.108308
0.106811
0.105749
0.104933
0.104273
0.103774
0.103369
0.103056
0.102811
0.102625
0.102489
0.102398
0.102345
0.102328
0.102346
0.102396
0.102475
0.10259
0.102713
0.102913
0.103006
0.103409
0.103206
0.104236
0.103476
0.106223
0.103347
0.135246
0.11002
0.106898
0.106709
0.105455
0.104767
0.104131
0.103625
0.103227
0.102897
0.10264
0.102433
0.102274
0.102156
0.102075
0.102025
0.102004
0.10201
0.102044
0.102099
0.102186
0.102268
0.102433
0.102464
0.102842
0.102549
0.103601
0.10289
0.105666
0.10289
0.122787
0.107932
0.105083
0.105433
0.104279
0.103898
0.103387
0.103012
0.102697
0.102433
0.102222
0.10205
0.101916
0.101813
0.101741
0.101693
0.101671
0.10167
0.101692
0.101729
0.101797
0.101848
0.101991
0.101974
0.102343
0.101984
0.103093
0.102446
0.105229
0.10249
0.115033
0.106545
0.103836
0.104421
0.103288
0.103141
0.102712
0.102443
0.102191
0.101983
0.101813
0.101671
0.101559
0.10147
0.101406
0.101362
0.101339
0.101333
0.101347
0.10137
0.101423
0.10145
0.101578
0.101525
0.101886
0.101495
0.102655
0.10209
0.104863
0.102133
0.109728
0.105598
0.102957
0.103626
0.102465
0.102481
0.102107
0.101923
0.101717
0.101552
0.101413
0.101296
0.101201
0.101126
0.10107
0.101031
0.101008
0.101
0.101007
0.101021
0.101062
0.101074
0.101192
0.101112
0.101467
0.10108
0.102282
0.101804
0.104551
0.101816
0.105919
0.104926
0.102319
0.103003
0.101782
0.1019
0.101553
0.101441
0.101271
0.101143
0.101031
0.100936
0.100858
0.100796
0.100748
0.100714
0.100693
0.100682
0.100685
0.100689
0.100723
0.100718
0.10083
0.100718
0.101081
0.100713
0.101956
0.101569
0.104282
0.101562
0.103102
0.104411
0.101849
0.1025
0.10122
0.1014
0.101044
0.100997
0.100857
0.100761
0.100672
0.100596
0.100534
0.100482
0.100441
0.100411
0.10039
0.100377
0.100375
0.100373
0.1004
0.10038
0.10049
0.100342
0.100736
0.100391
0.101666
0.101384
0.104038
0.101364
0.100978
0.103985
0.101489
0.102085
0.100751
0.100969
0.100598
0.100585
0.100466
0.100402
0.100329
0.100268
0.100215
0.100166
0.100124
0.100087
0.10006
0.100041
0.100038
0.100025
0.100069
0.100015
0.10015
0.0999373
0.100426
0.100067
0.10141
0.10124
0.103804
0.101225
0.0993509
0.103622
0.101207
0.101751
0.100335
0.100598
0.100167
0.100204
0.100066
0.100007
0.099924
0.0998456
0.0997758
0.0997153
0.099667
0.0996307
0.0996049
0.0995871
0.0995835
0.0995727
0.0996088
0.0995509
0.0997415
0.0994916
0.100145
0.0997024
0.101188
0.10113
0.103592
0.10113
0.0980888
0.103319
0.100991
0.10148
0.0998725
0.100267
0.099693
0.0997712
0.0995812
0.0995359
0.0994548
0.0993989
0.0993477
0.0993033
0.0992673
0.0992393
0.0992187
0.0992026
0.0991988
0.0991804
0.0992167
0.0991568
0.0993408
0.0991212
0.0998387
0.099393
0.100998
0.101041
0.103401
0.10107
0.0971021
0.103064
0.100832
0.101256
0.0994558
0.0999392
0.0992455
0.0993472
0.0991502
0.0991217
0.0990653
0.0990222
0.0989846
0.0989508
0.0989236
0.0989024
0.0988861
0.0988739
0.0988692
0.0988581
0.0988859
0.0988275
0.0990202
0.0988049
0.0994999
0.0991466
0.100837
0.100971
0.10323
0.101031
0.0963256
0.102844
0.100714
0.101066
0.099131
0.0995573
0.0988536
0.0989802
0.0988148
0.0987905
0.0987348
0.0987058
0.0986813
0.0986577
0.0986374
0.0986215
0.0986094
0.0985995
0.0985945
0.0985781
0.098612
0.0985723
0.0987379
0.0985293
0.0992062
0.0989515
0.100695
0.100915
0.103075
0.101007
0.0957117
0.102657
0.100628
0.100904
0.098888
0.0992346
0.0985479
0.0986704
0.0985273
0.0985337
0.0984789
0.0984549
0.0984306
0.098411
0.0983961
0.0983842
0.0983746
0.098367
0.0983694
0.0983587
0.0984011
0.0983475
0.0984922
0.0983173
0.098962
0.0988042
0.100574
0.100873
0.102936
0.100994
0.0952243
0.102501
0.100565
0.100764
0.0987033
0.0989788
0.0983111
0.0984255
0.0982886
0.0983013
0.0982721
0.0982537
0.0982325
0.0982164
0.0982039
0.0981946
0.0981888
0.0981842
0.0981885
0.0981837
0.098205
0.0981543
0.0982957
0.0981479
0.0987641
0.098692
0.100466
0.100842
0.102812
0.100991
0.0948364
0.102368
0.10052
0.100645
0.0985643
0.0987719
0.0981279
0.0982338
0.0980996
0.0981183
0.0980886
0.0980804
0.0980705
0.0980612
0.0980506
0.0980436
0.0980408
0.098036
0.0980343
0.0980225
0.0980479
0.0980014
0.0981378
0.0980143
0.0986
0.0986072
0.100371
0.100819
0.102703
0.100989
0.094527
0.102253
0.100483
0.100543
0.098459
0.098604
0.097985
0.0980784
0.097952
0.0979705
0.0979455
0.0979419
0.0979329
0.0979252
0.097919
0.097914
0.0979101
0.0979066
0.0979077
0.0978971
0.0979194
0.0978796
0.0980066
0.0979079
0.098465
0.0985443
0.100289
0.100803
0.102606
0.100993
0.0942794
0.102153
0.100455
0.100457
0.0983807
0.0984678
0.0978733
0.0979545
0.0978321
0.0978521
0.0978291
0.097827
0.0978196
0.097815
0.0978114
0.0978077
0.0978042
0.0978002
0.0978017
0.0977928
0.0978145
0.0977787
0.0979003
0.0978241
0.0983541
0.0984998
0.100218
0.100791
0.102518
0.100999
0.0940808
0.102065
0.100434
0.100385
0.0983228
0.0983585
0.0977862
0.0978543
0.0977371
0.0977564
0.0977348
0.0977342
0.0977288
0.097725
0.0977215
0.0977187
0.0977168
0.0977144
0.0977155
0.0977076
0.0977284
0.0976978
0.0978137
0.0977587
0.0982625
0.0984686
0.100154
0.100784
0.102439
0.101009
0.0939211
0.101989
0.100418
0.100323
0.0982811
0.0982689
0.0977192
0.0977735
0.0976604