/*--------------------------------*- C++ -*----------------------------------*\
  =========                 |
  \\      /  F ield         | OpenFOAM: The Open Source CFD Toolbox
   \\    /   O peration     | Website:  https://openfoam.org
    \\  /    A nd           | Version:  10
     \\/     M anipulation  |
\*---------------------------------------------------------------------------*/
FoamFile
{
    format      ascii;
    class       volScalarField;
    location    "0.05";
    object      k_0;
}
// * * * * * * * * * * * * * * * * * * * * * * * * * * * * * * * * * * * * * //

dimensions      [0 2 -2 0 0 0 0];

internalField   nonuniform List<scalar> 
116798
(
0.151667
0.219593
0.204773
0.184234
0.175596
0.174025
0.1748
0.175288
0.174703
0.173438
0.172076
0.170953
0.170367
0.170116
0.169748
0.168873
0.167652
0.166714
0.166374
0.166682
0.167607
0.169136
0.171235
0.174001
0.177419
0.181737
0.186331
0.191814
0.194746
0.188006
0.175896
0.21549
0.182285
0.169204
0.165959
0.165456
0.164323
0.161914
0.158724
0.155362
0.152198
0.149365
0.146912
0.144908
0.143465
0.142567
0.142164
0.142155
0.142475
0.143108
0.144058
0.145356
0.147006
0.149094
0.151503
0.154477
0.157182
0.160229
0.160073
0.156906
0.20002
0.215933
0.194007
0.184494
0.179705
0.17412
0.167384
0.160536
0.154482
0.149515
0.145583
0.142508
0.140114
0.138279
0.136988
0.136158
0.13574
0.135641
0.135802
0.136224
0.136911
0.137888
0.139128
0.140707
0.142415
0.144571
0.146181
0.148381
0.14701
0.146914
0.220727
0.208424
0.199485
0.18826
0.177495
0.166698
0.157567
0.15044
0.145009
0.140845
0.137634
0.135142
0.133187
0.131645
0.130511
0.129736
0.1293
0.129153
0.129244
0.12955
0.130054
0.130778
0.131655
0.132787
0.133904
0.135424
0.136198
0.13784
0.135706
0.137124
0.207714
0.191821
0.185094
0.172416
0.161355
0.152198
0.14528
0.140028
0.135988
0.132838
0.130361
0.128397
0.126828
0.125564
0.124626
0.123975
0.123594
0.123436
0.123456
0.123639
0.123962
0.12445
0.125025
0.125807
0.126484
0.127557
0.127763
0.12904
0.126989
0.128638
0.173743
0.168183
0.16051
0.152204
0.145087
0.139259
0.13469
0.131077
0.128189
0.125872
0.124002
0.12249
0.121258
0.120245
0.119473
0.118932
0.118605
0.118451
0.11843
0.118528
0.118723
0.119044
0.119403
0.11995
0.120309
0.121103
0.120958
0.122008
0.120192
0.121744
0.145799
0.146949
0.140124
0.136649
0.132399
0.12899
0.126025
0.123606
0.121579
0.119908
0.118524
0.117381
0.116432
0.115637
0.115014
0.114577
0.114307
0.114169
0.114126
0.114169
0.114277
0.11448
0.114691
0.115067
0.115229
0.115828
0.115505
0.116361
0.114921
0.116248
0.128685
0.13188
0.126531
0.125678
0.122885
0.121002
0.119059
0.117479
0.116074
0.114893
0.113885
0.113035
0.112315
0.1117
0.111201
0.110854
0.110637
0.110517
0.110466
0.110477
0.11053
0.110657
0.110772
0.111036
0.111078
0.111546
0.111133
0.111842
0.110818
0.111883
0.118132
0.121893
0.117622
0.117809
0.115777
0.114823
0.113519
0.112513
0.111545
0.110723
0.109997
0.109373
0.108833
0.108363
0.10797
0.107699
0.107527
0.107429
0.107378
0.107371
0.107391
0.10747
0.107524
0.107715
0.107685
0.108059
0.107623
0.108209
0.107614
0.108404
0.111171
0.11515
0.111599
0.112037
0.110451
0.11005
0.109139
0.108519
0.10785
0.107286
0.106768
0.106315
0.105913
0.105558
0.105253
0.105044
0.104911
0.104833
0.104787
0.104773
0.104775
0.104825
0.104844
0.104986
0.104917
0.105224
0.104803
0.105282
0.105104
0.10562
0.106321
0.110409
0.107367
0.107736
0.106435
0.106354
0.105688
0.105322
0.104854
0.104473
0.104105
0.103779
0.103483
0.103216
0.102982
0.102823
0.102723
0.102663
0.102625
0.10261
0.102604
0.102636
0.102635
0.102743
0.102659
0.102917
0.10253
0.102916
0.103121
0.103384
0.102812
0.106964
0.104304
0.104492
0.103383
0.103479
0.102973
0.10277
0.102437
0.102182
0.10192
0.101688
0.101471
0.101272
0.101095
0.100976
0.100903
0.100858
0.100829
0.100816
0.100807
0.10083
0.100818
0.100904
0.100817
0.101038
0.100697
0.100999
0.10155
0.101581
0.100206
0.104397
0.102053
0.102016
0.101052
0.101228
0.100834
0.100739
0.100494
0.100325
0.100138
0.0999723
0.0998139
0.0996674
0.099534
0.0994464
0.0993943
0.0993627
0.0993418
0.0993323
0.0993241
0.0993399
0.0993249
0.0993964
0.0993193
0.099502
0.0992148
0.099441
0.100291
0.100123
0.098233
0.102444
0.100375
0.100105
0.099266
0.0994573
0.0991402
0.0991174
0.098937
0.098826
0.0986894
0.0985716
0.0984558
0.0983481
0.0982489
0.0981852
0.0981492
0.098128
0.0981138
0.0981078
0.0981007
0.0981142
0.0981009
0.0981663
0.0980991
0.0982456
0.0980184
0.098172
0.0992892
0.0989404
0.0967153
0.100924
0.0990642
0.0986146
0.0978887
0.0980654
0.0977979
0.0978174
0.0976867
0.0976178
0.0975173
0.0974321
0.0973463
0.0972668
0.0971935
0.0971478
0.0971238
0.0971104
0.0971015
0.0970981
0.0970944
0.0971084
0.0971038
0.0971589
0.0971014
0.0972146
0.0970515
0.0971355
0.098488
0.0979804
0.0955342
0.0997339
0.0980324
0.0974456
0.0968174
0.09697
0.096736
0.0967722
0.0966752
0.0966382
0.0965676
0.0965076
0.0964439
0.0963848
0.0963303
0.0962975
0.0962819
0.0962739
0.0962696
0.0962705
0.0962725
0.0962899
0.0962876
0.0963326
0.0962821
0.0963713
0.09627
0.0962896
0.0978492
0.0972007
0.0946168
0.0987932
0.0972217
0.0965226
0.0959814
0.0961016
0.095902
0.0959376
0.0958604
0.0958423
0.0957936
0.095754
0.095709
0.0956663
0.0956262
0.0956028
0.0955938
0.0955911
0.095592
0.0955976
0.0956039
0.0956192
0.0956204
0.0956487
0.0956139
0.0956805
0.0956378
0.095599
0.0973392
0.096567
0.0938971
0.0980433
0.0965787
0.0957907
0.0953297
0.0954102
0.0952411
0.0952758
0.0952099
0.0952009
0.0951658
0.09514
0.095109
0.0950797
0.095052
0.0950371
0.0950341
0.095036
0.0950406
0.0950482
0.0950562
0.0950695
0.0950669
0.095088
0.0950699
0.0951136
0.095129
0.0950357
0.0969319
0.0960518
0.0933268
0.0974423
0.0960674
0.0952061
0.0948195
0.0948588
0.0947161
0.0947471
0.0946941
0.0946892
0.0946618
0.0946438
0.0946227
0.0946034
0.0945848
0.0945769
0.0945783
0.0945837
0.0945907
0.0945985
0.0946056
0.0946124
0.0946147
0.0946297
0.0946265
0.0946486
0.094721
0.0945767
0.0966072
0.0956324
0.0928735
0.0969594
0.0956597
0.0947376
0.0944179
0.0944195
0.0942988
0.0943225
0.0942803
0.0942798
0.0942587
0.0942462
0.0942321
0.0942186
0.0942063
0.0942027
0.0942069
0.0942136
0.0942205
0.0942263
0.0942337
0.0942399
0.0942473
0.0942543
0.094265
0.0942686
0.0943946
0.0942028
0.096349
0.0952904
0.0925121
0.0965696
0.0953337
0.0943605
0.0941006
0.0940673
0.0939696
0.0939823
0.0939478
0.0939491
0.0939336
0.0939261
0.0939155
0.0939063
0.0938983
0.0938976
0.0939029
0.0939095
0.093917
0.0939236
0.0939319
0.093937
0.093947
0.0939453
0.0939717
0.0939592
0.0941349
0.0938979
0.0961441
0.0950117
0.0922233
0.0962542
0.0950722
0.0940569
0.09385
0.0937839
0.0937082
0.0937117
0.0936825
0.0936829
0.0936709
0.0936662
0.0936587
0.0936528
0.0936481
0.0936492
0.0936553
0.0936621
0.0936704
0.0936771
0.0936861
0.0936883
0.0937006
0.0936925
0.0937347
0.093707
0.0939288
0.0936495
0.0959825
0.0947846
0.0919921
0.0959981
0.0948623
0.0938119
0.0936526
0.0935543
0.0935003
0.093495
0.0934723
0.0934711
0.0934604
0.0934568
0.0934515
0.0934479
0.0934455
0.0934481
0.0934548
0.093462
0.0934701
0.093476
0.0934844
0.0934841
0.0935002
0.0934866
0.0935449
0.0935015
0.0937656
0.0934474
0.0958555
0.0945999
0.0918069
0.0957893
0.0946937
0.0936139
0.0934982
0.0933691
0.0933341
0.0933213
0.0933049
0.093302
0.0932934
0.09329
0.0932855
0.0932833
0.0932822
0.0932856
0.0932923
0.0932989
0.0933061
0.0933107
0.0933197
0.0933177
0.0933377
0.0933198
0.0933925
0.0933337
0.0936371
0.0932833
0.0957557
0.0944496
0.0916584
0.0956191
0.094559
0.0934538
0.0933775
0.0932196
0.0932012
0.0931806
0.0931714
0.0931672
0.0931599
0.0931566
0.0931531
0.0931515
0.0931509
0.093154
0.0931601
0.093166
0.0931729
0.0931768
0.0931862
0.0931826
0.0932074
0.0931854
0.0932707
0.0931966
0.0935361
0.0931497
0.095678
0.0943275
0.0915391
0.0954804
0.0944515
0.0933246
0.0932831
0.0930994
0.093096
0.0930662
0.0930639
0.0930593
0.093054
0.0930505
0.0930474
0.0930458
0.0930454
0.0930483
0.0930538
0.093059
0.0930654
0.0930683
0.0930785
0.0930743
0.0931041
0.0930765
0.093173
0.0930844
0.0934571
0.0930412
0.0956185
0.0942283
0.0914426
0.095367
0.0943664
0.0932207
0.0932102
0.0930029
0.0930125
0.0929738
0.0929766
0.0929715
0.0929688
0.0929658
0.0929632
0.0929617
0.0929612
0.0929635
0.0929682
0.0929726
0.0929787
0.0929813
0.0929931
0.0929883
0.0930215
0.0929877
0.0930945
0.0929927
0.0933952
0.0929531
0.0955736
0.094148
0.0913646
0.0952738
0.094299
0.0931371
0.0931545
0.0929248
0.092946
0.0928988
0.0929059
0.0928993
0.0928985
0.0928963
0.0928946
0.0928933
0.0928929
0.0928947
0.0928989
0.0929029
0.0929091
0.0929118
0.0929246
0.0929181
0.0929541
0.0929146
0.0930298
0.0929166
0.0933484
0.0928812
0.09554
0.0940829
0.0913016
0.0951967
0.0942459
0.0930692
0.0931096
0.0928619
0.0928938
0.0928384
0.0928499
0.092841
0.0928418
0.0928396
0.0928388
0.092838
0.092838
0.0928398
0.0928439
0.0928477
0.0928541
0.0928562
0.0928696
0.0928609
0.0928999
0.0928536
0.092978
0.092853
0.093315
0.0928226
0.0955156
0.0940302
0.0912508
0.0951329
0.0942041
0.0930118
0.0930741
0.0928111
0.0928531
0.0927898
0.0928057
0.0927945
0.0927965
0.0927943
0.0927942
0.0927937
0.0927941
0.0927961
0.0928
0.0928035
0.0928098
0.0928113
0.0928252
0.0928141
0.0928555
0.0928033
0.0929363
0.0927997
0.0932871
0.0927752
0.0954984
0.0939876
0.09121
0.09508
0.0941712
0.0929633
0.0930467
0.0927697
0.0928213
0.0927505
0.0927708
0.0927574
0.0927607
0.092758
0.0927583
0.0927581
0.0927588
0.0927609
0.0927648
0.0927681
0.0927744
0.092775
0.0927891
0.0927754
0.0928195
0.0927617
0.0929031
0.092756
0.0932627
0.092737
0.0954867
0.0939532
0.0911767
0.0950359
0.0941456
0.0929235
0.0930249
0.0927365
0.0927967
0.0927187
0.0927433
0.0927277
0.0927323
0.0927293
0.09273
0.0927299
0.0927307
0.0927329
0.0927366
0.0927395
0.0927455
0.0927451
0.0927594
0.0927435
0.0927903
0.0927274
0.0928767
0.09272
0.0932443
0.0927061
0.0954792
0.0939254
0.0911495
0.0949993
0.0941254
0.0928909
0.0930077
0.0927094
0.0927777
0.0926928
0.0927215
0.0927038
0.0927097
0.0927063
0.0927074
0.0927073
0.0927082
0.0927103
0.0927137
0.0927161
0.0927219
0.0927206
0.0927353
0.0927172
0.0927667
0.0926993
0.0928559
0.0926906
0.0932308
0.0926811
0.095475
0.0939029
0.0911275
0.0949685
0.0941088
0.092864
0.0929944
0.0926875
0.0927635
0.0926717
0.0927044
0.0926846
0.0926918
0.092688
0.0926893
0.0926891
0.0926901
0.0926919
0.0926951
0.0926971
0.0927027
0.0927005
0.0927158
0.0926954
0.0927479
0.0926759
0.0928401
0.0926665
0.0932213
0.0926609
0.0954732
0.0938849
0.0911098
0.0949427
0.0940949
0.0928415
0.092984
0.0926697
0.0927523
0.0926547
0.0926908
0.0926691
0.0926775
0.0926733
0.092675
0.0926747
0.0926756
0.0926773
0.0926802
0.0926818
0.0926872
0.0926842
0.0926998
0.0926777
0.0927326
0.0926569
0.0928273
0.0926467
0.0932146
0.0926445
0.0954734
0.0938705
0.0910954
0.0949209
0.0940832
0.0928229
0.0929762
0.0926553
0.0927441
0.0926405
0.0926805
0.0926564
0.0926662
0.0926616
0.0926635
0.0926631
0.0926641
0.0926655
0.0926682
0.0926693
0.0926746
0.0926708
0.0926872
0.0926627
0.0927208
0.092641
0.0928176
0.0926304
0.0932101
0.0926312
0.0954749
0.0938589
0.0910837
0.0949026
0.0940734
0.0928072
0.0929704
0.0926437
0.0927377
0.0926292
0.0926722
0.0926463
0.0926572
0.0926521
0.0926543
0.0926538
0.0926548
0.092656
0.0926585
0.0926593
0.0926645
0.09266
0.0926768
0.0926505
0.092711
0.0926279
0.0928101
0.092617
0.0932077
0.0926204
0.0954777
0.0938497
0.0910741
0.0948872
0.0940654
0.0927942
0.0929663
0.0926342
0.0927328
0.0926197
0.0926661
0.0926378
0.09265
0.0926444
0.092647
0.0926464
0.0926473
0.0926484
0.0926507
0.0926511
0.0926563
0.0926508
0.0926685
0.0926399
0.0927034
0.0926168
0.0928049
0.0926059
0.0932061
0.0926117
0.0954809
0.0938424
0.0910662
0.0948742
0.0940591
0.0927833
0.0929637
0.0926261
0.0927301
0.0926121
0.0926612
0.0926309
0.0926441
0.092638
0.092641
0.0926403
0.0926412
0.0926422
0.0926443
0.0926444
0.0926496
0.0926434
0.0926616
0.0926312
0.0926972
0.0926074
0.0928021
0.092597
0.0932067
0.0926046
0.0954851
0.0938366
0.0910598
0.0948631
0.094054
0.0927743
0.0929624
0.0926191
0.0927283
0.0926059
0.0926576
0.0926249
0.0926395
0.0926328
0.092636
0.0926352
0.0926362
0.092637
0.092639
0.0926388
0.0926439
0.092637
0.092656
0.0926235
0.0926926
0.0925993
0.0928006
0.0925896
0.0932079
0.0925989
0.0954895
0.093832
0.0910545
0.0948535
0.09405
0.0927667
0.092962
0.0926131
0.0927271
0.0926007
0.0926549
0.0926199
0.0926356
0.0926284
0.0926319
0.092631
0.0926321
0.0926327
0.0926346
0.0926341
0.0926393
0.0926316
0.0926515
0.092617
0.092689
0.0925924
0.0927991
0.0925837
0.0932095
0.0925944
0.0954941
0.0938284
0.0910502
0.0948454
0.0940467
0.0927603
0.0929623
0.0926081
0.0927265
0.0925965
0.0926529
0.0926156
0.0926325
0.0926247
0.0926286
0.0926275
0.0926286
0.0926291
0.0926309
0.0926301
0.0926355
0.0926269
0.0926477
0.0926112
0.0926862
0.0925866
0.0927983
0.0925788
0.0932114
0.0925908
0.0954988
0.0938255
0.0910467
0.0948383
0.0940442
0.0927549
0.092963
0.092604
0.0927264
0.0925929
0.0926515
0.0926118
0.09263
0.0926215
0.0926257
0.0926245
0.0926257
0.092626
0.0926278
0.0926267
0.0926322
0.0926229
0.0926446
0.0926061
0.0926841
0.0925818
0.092798
0.0925748
0.0932135
0.0925879
0.0955035
0.0938232
0.0910439
0.0948323
0.0940422
0.0927503
0.0929641
0.0926005
0.0927267
0.0925899
0.0926504
0.0926086
0.092628
0.0926187
0.0926233
0.0926219
0.0926232
0.0926234
0.0926251
0.0926237
0.0926294
0.0926193
0.092642
0.0926014
0.0926825
0.0925778
0.092798
0.0925716
0.0932157
0.0925856
0.095508
0.0938215
0.0910415
0.0948271
0.0940408
0.0927465
0.0929655
0.0925976
0.0927272
0.0925874
0.0926497
0.0926058
0.0926263
0.0926163
0.0926212
0.0926196
0.092621
0.092621
0.0926227
0.0926211
0.0926269
0.092616
0.0926399
0.0925973
0.0926813
0.0925746
0.0927983
0.092569
0.0932179
0.0925837
0.0955123
0.0938201
0.0910396
0.0948226
0.0940397
0.0927433
0.0929671
0.0925952
0.0927279
0.0925852
0.0926498
0.0926033
0.092625
0.0926142
0.0926195
0.0926177
0.092619
0.092619
0.0926207
0.0926187
0.0926248
0.0926131
0.0926381
0.0925937
0.092681
0.0925718
0.0927989
0.0925668
0.09322
0.0925823
0.0955164
0.0938191
0.0910381
0.0948187
0.0940389
0.0927405
0.0929686
0.0925931
0.0927287
0.0925832
0.0926501
0.0926013
0.0926239
0.0926123
0.092618
0.0926159
0.0926173
0.0926171
0.0926188
0.0926166
0.0926231
0.0926105
0.0926367
0.0925906
0.0926811
0.0925696
0.0927998
0.0925649
0.0932221
0.0925812
0.0955202
0.0938183
0.0910368
0.0948154
0.0940383
0.0927382
0.09297
0.0925913
0.0927297
0.0925816
0.0926505
0.0925993
0.0926231
0.0926106
0.0926167
0.0926144
0.0926159
0.0926156
0.0926173
0.0926147
0.0926215
0.0926081
0.0926356
0.0925878
0.0926813
0.0925677
0.0928006
0.0925634
0.093224
0.0925803
0.0955237
0.0938177
0.0910357
0.0948124
0.0940378
0.0927362
0.0929713
0.0925898
0.0927307
0.0925801
0.092651
0.0925975
0.0926224
0.0926091
0.0926156
0.0926131
0.0926146
0.0926141
0.0926159
0.092613
0.0926202
0.0926059
0.0926346
0.0925854
0.0926818
0.0925662
0.0928016
0.0925621
0.0932258
0.0925796
0.095527
0.0938173
0.0910349
0.0948099
0.0940375
0.0927345
0.0929724
0.0925885
0.0927317
0.0925788
0.0926517
0.0925959
0.0926218
0.0926077
0.0926146
0.0926118
0.0926135
0.0926128
0.0926146
0.0926115
0.092619
0.0926039
0.092634
0.0925833
0.0926824
0.092565
0.0928026
0.092561
0.0932275
0.092579
0.09553
0.093817
0.0910342
0.0948077
0.0940371
0.092733
0.0929735
0.0925874
0.0927327
0.0925777
0.0926524
0.0925945
0.0926215
0.0926065
0.0926138
0.0926107
0.0926124
0.0926116
0.0926135
0.0926101
0.0926181
0.0926021
0.0926335
0.0925816
0.0926831
0.092564
0.0928037
0.09256
0.093229
0.0925786
0.0955328
0.0938168
0.0910336
0.0948057
0.0940369
0.0927317
0.0929745
0.0925865
0.0927337
0.0925768
0.0926532
0.0925931
0.0926215
0.0926054
0.0926131
0.0926097
0.0926116
0.0926106
0.0926126
0.0926089
0.0926174
0.0926006
0.0926335
0.0925801
0.0926838
0.0925631
0.0928047
0.0925592
0.0932305
0.0925783
0.0955353
0.0938167
0.0910332
0.094804
0.0940366
0.0927305
0.0929754
0.0925857
0.0927347
0.0925759
0.092654
0.0925919
0.0926216
0.0926045
0.0926125
0.0926089
0.0926108
0.0926097
0.0926119
0.0926078
0.0926168
0.0925992
0.0926336
0.0925788
0.0926846
0.0925625
0.0928056
0.0925585
0.0932318
0.0925781
0.0955375
0.0938166
0.0910328
0.0948025
0.0940364
0.0927296
0.0929762
0.0925851
0.0927356
0.0925752
0.0926548
0.0925908
0.0926216
0.0926036
0.0926121
0.0926081
0.0926102
0.0926089
0.0926112
0.0926068
0.0926163
0.0925979
0.0926337
0.0925777
0.0926854
0.0925619
0.0928065
0.0925579
0.0932331
0.0925779
0.0955395
0.0938166
0.0910325
0.0948012
0.0940362
0.0927287
0.0929769
0.0925845
0.0927364
0.0925747
0.0926556
0.0925897
0.0926217
0.0926028
0.0926117
0.0926074
0.0926097
0.0926082
0.0926107
0.0926059
0.0926159
0.0925967
0.0926338
0.0925767
0.0926861
0.0925614
0.0928073
0.0925574
0.0932342
0.0925778
0.0955414
0.0938166
0.0910322
0.0948001
0.094036
0.092728
0.0929775
0.092584
0.0927372
0.0925742
0.0926564
0.0925887
0.0926219
0.092602
0.0926114
0.0926068
0.0926092
0.0926076
0.0926102
0.0926052
0.0926157
0.0925956
0.092634
0.0925759
0.0926868
0.0925611
0.0928081
0.0925569
0.0932352
0.0925777
0.095543
0.0938166
0.091032
0.0947991
0.0940358
0.0927274
0.0929781
0.0925836
0.092738
0.0925737
0.0926572
0.0925878
0.0926221
0.0926013
0.0926113
0.0926063
0.0926088
0.0926071
0.0926098
0.0926044
0.0926155
0.0925946
0.0926343
0.0925752
0.0926874
0.0925608
0.0928087
0.0925565
0.0932361
0.0925776
0.0955445
0.0938166
0.0910318
0.0947983
0.0940356
0.0927269
0.0929785
0.0925832
0.0927387
0.0925734
0.0926579
0.092587
0.0926224
0.0926007
0.0926112
0.0926058
0.0926085
0.0926066
0.0926095
0.0926038
0.0926155
0.0925938
0.0926347
0.0925746
0.092688
0.0925605
0.0928093
0.0925562
0.0932368
0.0925776
0.0955458
0.0938167
0.0910317
0.0947976
0.0940355
0.0927264
0.0929788
0.0925829
0.0927393
0.0925731
0.0926586
0.0925864
0.0926227
0.0926001
0.0926111
0.0926054
0.0926083
0.0926062
0.0926093
0.0926032
0.0926154
0.092593
0.092635
0.092574
0.0926885
0.0925603
0.0928098
0.0925559
0.0932375
0.0925776
0.095547
0.0938167
0.0910316
0.0947969
0.0940354
0.092726
0.0929791
0.0925827
0.0927398
0.0925728
0.0926592
0.0925857
0.092623
0.0925996
0.0926111
0.092605
0.0926081
0.0926058
0.0926091
0.0926027
0.0926154
0.0925922
0.0926354
0.0925736
0.092689
0.0925602
0.0928102
0.0925556
0.0932381
0.0925775
0.095548
0.0938168
0.0910315
0.0947964
0.0940353
0.0927257
0.0929793
0.0925825
0.0927402
0.0925726
0.0926597
0.0925852
0.0926233
0.0925991
0.0926111
0.0926047
0.092608
0.0926055
0.092609
0.0926023
0.0926154
0.0925916
0.0926357
0.0925732
0.0926894
0.09256
0.0928106
0.0925554
0.0932386
0.0925775
0.0955489
0.0938168
0.0910314
0.0947959
0.0940351
0.0927254
0.0929794
0.0925823
0.0927405
0.0925724
0.0926602
0.0925848
0.0926236
0.0925987
0.0926111
0.0926044
0.0926079
0.0926052
0.0926089
0.0926019
0.0926155
0.092591
0.092636
0.0925729
0.0926898
0.0925599
0.0928109
0.0925552
0.0932391
0.0925775
0.0955497
0.0938169
0.0910313
0.0947955
0.0940349
0.0927251
0.0929794
0.0925821
0.0927407
0.0925723
0.0926605
0.0925844
0.0926238
0.0925983
0.0926111
0.0926041
0.0926079
0.0926049
0.0926089
0.0926015
0.0926155
0.0925905
0.0926362
0.0925726
0.0926901
0.0925598
0.0928111
0.0925551
0.0932395
0.0925775
0.0955503
0.093817
0.0910313
0.0947952
0.0940347
0.0927249
0.0929794
0.092582
0.0927408
0.0925722
0.0926608
0.0925841
0.092624
0.092598
0.0926111
0.0926039
0.0926078
0.0926047
0.0926088
0.0926012
0.0926156
0.0925902
0.0926365
0.0925724
0.0926903
0.0925598
0.0928113
0.0925549
0.0932398
0.0925775
0.0955508
0.093817
0.0910312
0.0947949
0.0940345
0.0927247
0.0929792
0.0925819
0.0927408
0.0925721
0.092661
0.0925839
0.0926241
0.0925978
0.0926111
0.0926037
0.0926078
0.0926046
0.0926088
0.092601
0.0926156
0.0925898
0.0926366
0.0925722
0.0926904
0.0925597
0.0928114
0.0925548
0.0932399
0.0925775
0.0955512
0.093817
0.0910312
0.0947947
0.0940341
0.0927245
0.092979
0.0925818
0.0927407
0.092572
0.092661
0.0925837
0.0926242
0.0925976
0.0926111
0.0926035
0.0926078
0.0926044
0.0926088
0.0926008
0.0926156
0.0925896
0.0926367
0.0925721
0.0926905
0.0925597
0.0928114
0.0925548
0.09324
0.0925775
0.0955516
0.0938171
0.0910311
0.0947946
0.0940336
0.0927243
0.0929785
0.0925817
0.0927404
0.0925719
0.0926609
0.0925836
0.0926242
0.0925975
0.0926111
0.0926034
0.0926077
0.0926043
0.0926087
0.0926007
0.0926156
0.0925895
0.0926366
0.092572
0.0926903
0.0925596
0.0928113
0.0925547
0.0932399
0.0925775
0.0955517
0.0938171
0.0910311
0.0947946
0.094033
0.0927242
0.0929779
0.0925817
0.09274
0.0925718
0.0926606
0.0925836
0.0926241
0.0925975
0.0926111
0.0926034
0.0926077
0.0926043
0.0926087
0.0926006
0.0926155
0.0925895
0.0926365
0.092572
0.0926901
0.0925596
0.092811
0.0925546
0.0932397
0.0925775
0.0955516
0.0938171
0.0910311
0.0947946
0.0940321
0.092724
0.0929769
0.0925816
0.0927393
0.0925717
0.0926602
0.0925837
0.092624
0.0925975
0.0926111
0.0926034
0.0926077
0.0926042
0.0926086
0.0926006
0.0926154
0.0925895
0.0926363
0.0925719
0.0926897
0.0925595
0.0928106
0.0925546
0.0932392
0.0925775
0.0955514
0.0938171
0.0910311
0.0947948
0.0940311
0.0927239
0.0929757
0.0925816
0.0927385
0.0925717
0.0926595
0.0925838
0.0926237
0.0925976
0.092611
0.0926034
0.0926077
0.0926042
0.0926086
0.0926007
0.0926152
0.0925897
0.0926359
0.092572
0.0926891
0.0925594
0.09281
0.0925546
0.0932386
0.0925774
0.0955509
0.0938171
0.0910312
0.094795
0.0940297
0.0927238
0.0929742
0.0925816
0.0927374
0.0925717
0.0926587
0.0925842
0.0926234
0.0925979
0.0926109
0.0926035
0.0926077
0.0926043
0.0926085
0.0926008
0.092615
0.09259
0.0926355
0.0925721
0.0926884
0.0925594
0.0928093
0.0925547
0.0932378
0.0925774
0.0955503
0.0938171
0.0910313
0.0947953
0.0940283
0.0927238
0.0929725
0.0925817
0.092736
0.0925717
0.0926576
0.0925847
0.092623
0.0925982
0.0926109
0.0926036
0.0926077
0.0926044
0.0926084
0.0926011
0.0926147
0.0925904
0.092635
0.0925723
0.0926876
0.0925593
0.0928085
0.0925548
0.0932369
0.0925775
0.0955496
0.0938171
0.0910314
0.0947956
0.0940266
0.0927237
0.0929705
0.0925818
0.0927347
0.0925719
0.0926566
0.0925853
0.0926225
0.0925986
0.0926108
0.0926038
0.0926077
0.0926045
0.0926084
0.0926012
0.0926145
0.0925909
0.0926343
0.0925725
0.0926866
0.0925593
0.0928075
0.0925549
0.0932359
0.0925775
0.0955487
0.0938172
0.0925819
0.0927328
0.0925721
0.0926549
0.0925862
0.0926218
0.0925992
0.0926107
0.0926041
0.0926077
0.0926048
0.0926083
0.0926018
0.0926141
0.0925915
0.0926338
0.0925728
0.0926858
0.0925593
0.0928066
0.092555
0.0932349
0.0925775
0.0955477
0.0938172
0.0927323
0.0925722
0.0926545
0.0925866
0.0926216
0.0925993
0.0926108
0.0926042
0.0926079
0.0926048
0.0926085
0.0926018
0.0926141
0.0925921
0.0926331
0.0925733
0.0926847
0.0925593
0.0928057
0.0925552
0.0932338
0.0925775
0.0955467
0.0938172
0.0926523
0.092588
0.0926204
0.0926004
0.0926104
0.0926047
0.0926078
0.0926054
0.0926081
0.0926026
0.0926136
0.0925928
0.092633
0.0925735
0.0926847
0.0925594
0.0928055
0.0925554
0.0932332
0.0925775
0.0955457
0.0938172
0.0926053
0.0926086
0.0926027
0.0926137
0.0925936
0.0926321
0.0925742
0.0926837
0.0925595
0.0928049
0.0925557
0.0932325
0.0925775
0.0955446
0.0938172
0.0926084
0.0926035
0.0926135
0.0925943
0.092632
0.0925744
0.0926841
0.0925598
0.0928052
0.0925559
0.0932324
0.0925775
0.0955436
0.0938173
0.0926045
0.0926133
0.0925954
0.0926315
0.0925751
0.0926838
0.09256
0.0928049
0.0925563
0.0932319
0.0925775
0.0955423
0.0938173
0.0926135
0.0925962
0.0926311
0.0925759
0.0926832
0.0925603
0.0928047
0.0925566
0.0932315
0.0925776
0.0955409
0.0938174
0.0925766
0.0926827
0.0925607
0.0928041
0.092557
0.0932305
0.0925776
0.0955391
0.0938174
0.228055
0.154481
0.151057
0.132005
0.120563
0.113597
0.109366
0.106842
0.10532
0.104311
0.103537
0.102869
0.102295
0.101902
0.101848
0.102162
0.102728
0.103391
0.104071
0.104763
0.105498
0.106318
0.10729
0.108458
0.109971
0.11182
0.114338
0.11718
0.120833
0.128873
0.226104
0.178437
0.155584
0.13072
0.117577
0.110893
0.107573
0.105861
0.104913
0.104336
0.103985
0.103792
0.103714
0.103698
0.103685
0.103668
0.10366
0.103695
0.103801
0.104006
0.104313
0.104761
0.105333
0.106116
0.107097
0.108259
0.110044
0.110517
0.113413
0.109622
0.231565
0.168111
0.141643
0.122454
0.11359
0.109287
0.107121
0.105861
0.105048
0.10447
0.104049
0.103737
0.103505
0.10334
0.103244
0.103222
0.103273
0.103393
0.103575
0.103825
0.104146
0.104551
0.105057
0.105642
0.106449
0.107091
0.108604
0.108384
0.111337
0.105913
0.235631
0.144979
0.127373
0.116151
0.111038
0.108327
0.106811
0.105762
0.105011
0.104438
0.104009
0.103688
0.103457
0.103303
0.103208
0.103166
0.103173
0.103232
0.103345
0.103515
0.103746
0.10404
0.104416
0.104817
0.10543
0.105724
0.106915
0.106214
0.108679
0.105463
0.234751
0.127202
0.1181
0.112398
0.109501
0.107586
0.10635
0.105397
0.104697
0.104152
0.10374
0.103425
0.103192
0.103025
0.102918
0.102867
0.102868
0.10292
0.103018
0.103162
0.103355
0.103586
0.103893
0.104168
0.104687
0.104761
0.105878
0.105117
0.107761
0.104476
0.19708
0.117728
0.112713
0.109966
0.108055
0.106616
0.105611
0.104807
0.104212
0.10374
0.103382
0.103106
0.102901
0.102757
0.102663
0.102613
0.102602
0.102631
0.102698
0.102802
0.102947
0.103114
0.103355
0.103526
0.103966
0.103879
0.10491
0.104117
0.106782
0.103906
0.155895
0.112747
0.10915
0.108063
0.106612
0.105596
0.104808
0.10417
0.103687
0.103294
0.10299
0.102752
0.102572
0.10244
0.102351
0.1023
0.102285
0.102303
0.102353
0.102432
0.102546
0.102667
0.102865
0.102959
0.103359
0.103159
0.104186
0.103429
0.106151
0.103323
0.133819
0.109721
0.106645
0.106523
0.105293
0.10464
0.104024
0.103536
0.103151
0.102832
0.102581
0.102381
0.102227
0.102112
0.102034
0.101986
0.101966
0.101973
0.102007
0.102062
0.102148
0.10223
0.102394
0.102425
0.1028
0.102511
0.103559
0.102849
0.105599
0.102876
0.121994
0.10773
0.104909
0.10529
0.104151
0.103795
0.103298
0.102937
0.102631
0.102376
0.102172
0.102005
0.101875
0.101776
0.101706
0.10166
0.101639
0.101639
0.101661
0.101699
0.101766
0.101817
0.101959
0.101942
0.102309
0.101955
0.103058
0.102411
0.105165
0.102486
0.114549
0.106401
0.103714
0.104312
0.103188
0.103058
0.102639
0.102381
0.102137
0.101936
0.101771
0.101634
0.101525
0.101439
0.101377
0.101335
0.101312
0.101308
0.101322
0.101346
0.101398
0.101426
0.101552
0.1015
0.101859
0.101472
0.102625
0.10206
0.104802
0.102143
0.109427
0.105491
0.10287
0.103542
0.102389
0.102416
0.102049
0.101873
0.101673
0.101514
0.101379
0.101265
0.101174
0.101101
0.101047
0.101009
0.100988
0.10098
0.100988
0.101002
0.101044
0.101056
0.101173
0.101095
0.101447
0.101063
0.102257
0.101778
0.104494
0.101838
0.105737
0.104842
0.102255
0.102938
0.101724
0.10185
0.101508
0.101402
0.101236
0.101113
0.101004
0.100912
0.100838
0.100777
0.100731
0.100698
0.100678
0.100668
0.100671
0.100677
0.10071
0.100706
0.100817
0.100707
0.101066
0.100702
0.101935
0.101546
0.104227
0.101593
0.103002
0.104343
0.101801
0.102449
0.101178
0.101362
0.10101
0.100968
0.100831
0.100739
0.100653
0.10058
0.100519
0.100469
0.10043
0.100401
0.100381
0.100368
0.100367
0.100366
0.100393
0.100373
0.100482
0.100337
0.100728
0.100386
0.101649
0.101363
0.103987
0.1014
0.100937
0.103927
0.101453
0.102044
0.100721
0.100942
0.100575
0.100565
0.100449
0.100388
0.100316
0.100258
0.100206
0.100159
0.100118
0.100083
0.100056
0.100038
0.100036
0.100024
0.100068
0.100015
0.100148
0.0999394
0.100423
0.100069
0.101397
0.101221
0.103755
0.101265
0.0993524
0.103573
0.101179
0.101717
0.100315
0.10058
0.100152
0.100192
0.100056
0.099999
0.0999174
0.0998414
0.0997739
0.0997157
0.0996692
0.0996345
0.09961
0.0995932
0.0995902
0.0995806
0.0996159
0.0995601
0.0997475
0.099502
0.100147
0.0997095
0.101178
0.101113
0.103546
0.101172
0.0981223
0.103278
0.100971
0.101452
0.0998609
0.100256
0.099686
0.0997652
0.0995794
0.0995367
0.0994582
0.0994046
0.0993553
0.0993128
0.0992781
0.0992514
0.0992317
0.0992165
0.0992131
0.0991957
0.0992313
0.0991733
0.0993542
0.0991388
0.0998485
0.099405
0.10099
0.101025
0.103357
0.101113
0.0971599
0.103028
0.100818
0.101234
0.0994557
0.0999351
0.0992499
0.099352
0.0991589
0.0991322
0.0990779
0.0990364
0.0990003
0.0989678
0.0989417
0.0989215
0.0989059
0.0988944
0.0988899
0.0988798
0.0989067
0.0988502
0.09904
0.0988284
0.0995154
0.0991628
0.100831
0.100957
0.103189
0.101076
0.0964021
0.102813
0.100703
0.101047
0.09914
0.0995614
0.0988676
0.098994
0.0988322
0.0988089
0.0987548
0.098727
0.0987037
0.0986811
0.0986616
0.0986463
0.0986348
0.0986255
0.0986206
0.098605
0.0986381
0.0986002
0.0987629
0.0985572
0.0992262
0.0989711
0.100692
0.100902
0.103036
0.101052
0.0958027
0.102631
0.10062
0.100888
0.098904
0.0992458
0.0985696
0.0986913
0.0985516
0.0985586
0.098505
0.0984819
0.0984584
0.0984396
0.0984252
0.0984139
0.0984047
0.0983975
0.0984
0.0983901
0.0984317
0.0983796
0.0985213
0.098349
0.0989858
0.0988263
0.100572
0.100861
0.102899
0.101039
0.0953265
0.102478
0.10056
0.10075
0.0987246
0.0989957
0.0983387
0.0984521
0.0983183
0.0983313
0.0983033
0.0982853
0.0982647
0.0982492
0.0982371
0.0982283
0.0982228
0.0982185
0.0982229
0.0982187
0.0982392
0.0981899
0.0983284
0.0981825
0.098791
0.098716
0.100465
0.100832
0.102777
0.101036
0.0949475
0.102348
0.100516
0.100633
0.0985894
0.0987933
0.09816
0.0982649
0.0981338
0.0981524
0.0981237
0.0981159
0.0981065
0.0980975
0.0980873
0.0980806
0.098078
0.0980735
0.0980717
0.0980605
0.0980851
0.0980398
0.0981735
0.0980514
0.0986295
0.0986327
0.100372
0.10081
0.10267
0.101034
0.094645
0.102236
0.100482
0.100533
0.0984871
0.098629
0.0980206
0.0981131
0.0979897
0.0980079
0.0979839
0.0979805
0.0979718
0.0979644
0.0979585
0.0979537
0.09795
0.0979467
0.0979478
0.0979376
0.0979592
0.0979204
0.0980448
0.0979469
0.0984967
0.0985707
0.100291
0.100794
0.102575
0.101037
0.0944029
0.102138
0.100455
0.100448
0.0984109
0.0984955
0.0979117
0.097992
0.0978725
0.0978923
0.0978701
0.0978681
0.097861
0.0978567
0.0978532
0.0978497
0.0978463
0.0978425
0.0978439
0.0978354
0.0978563
0.0978214
0.0979405
0.0978646
0.0983876
0.0985269
0.100221
0.100783
0.102488
0.101043
0.0942087
0.102052
0.100435
0.100377
0.0983545
0.0983885
0.0978267
0.0978941
0.0977798
0.0977987
0.0977779
0.0977774
0.0977722
0.0977685
0.0977652
0.0977625
0.0977607
0.0977584
0.0977595
0.0977519
0.0977719
0.0977421
0.0978555
0.0978004
0.0982975
0.0984962
0.100159
0.100776
0.102411
0.101052
0.0940526
0.101977
0.10042
0.100316
0.098314
0.0983007
0.0977614
0.097815
0.0977048
0.0977232