/*--------------------------------*- C++ -*----------------------------------*\
  =========                 |
  \\      /  F ield         | OpenFOAM: The Open Source CFD Toolbox
   \\    /   O peration     | Website:  https://openfoam.org
    \\  /    A nd           | Version:  10
     \\/     M anipulation  |
\*---------------------------------------------------------------------------*/
FoamFile
{
    format      ascii;
    class       volScalarField;
    location    "0.05";
    object      nut;
}
// * * * * * * * * * * * * * * * * * * * * * * * * * * * * * * * * * * * * * //

dimensions      [0 2 -1 0 0 0 0];

internalField   nonuniform List<scalar> 
116798
(
0.000554842
0.00025825
0.00028086
0.000313762
0.000350824
0.000369805
0.000371243
0.000367143
0.00036306
0.000360137
0.00035831
0.000357153
0.000356572
0.000355744
0.000353795
0.000350321
0.000345619
0.000340777
0.000336245
0.000331986
0.000327863
0.000323723
0.000319513
0.00031514
0.00031089
0.000306599
0.000302619
0.000299311
0.000295054
0.000304388
0.000260871
0.000301447
0.000317085
0.000359477
0.000400337
0.000425169
0.000436667
0.000442113
0.0004456
0.000448272
0.000450594
0.000452564
0.000454302
0.000454947
0.00045508
0.0004541
0.000452298
0.000449849
0.000446875
0.000443392
0.000439715
0.000435741
0.000431877
0.000427915
0.000424809
0.000421954
0.00042086
0.000420639
0.000422135
0.000464906
0.000225065
0.00031032
0.00035067
0.000397756
0.000427212
0.000438985
0.000443289
0.000445069
0.000446654
0.000448242
0.000449876
0.000451341
0.000452663
0.000453463
0.000453731
0.000453654
0.000453097
0.00045208
0.000450568
0.000448741
0.000446921
0.000444891
0.000443288
0.000441461
0.000441147
0.000440488
0.000443224
0.000445451
0.000450071
0.000496096
0.000221832
0.000328587
0.000378258
0.000414113
0.000431222
0.000437532
0.000441651
0.000445047
0.00044868
0.000451937
0.000454982
0.000457745
0.000460268
0.000462227
0.000463251
0.000463737
0.000463473
0.000462655
0.000461458
0.000459911
0.00045831
0.000456379
0.000454835
0.000452668
0.000452375
0.000450711
0.00045304
0.000453321
0.000454068
0.000502407
0.000215379
0.00035634
0.000387957
0.000409963
0.000424926
0.000433361
0.000441437
0.00044794
0.000454235
0.000459561
0.000464402
0.000468559
0.000472194
0.000475135
0.000476958
0.000478163
0.000478544
0.000478289
0.000477613
0.000476491
0.000475298
0.000473553
0.00047243
0.000470157
0.000470382
0.000467976
0.000470805
0.000469177
0.000470024
0.000517529
0.00020774
0.000378704
0.000394451
0.00041074
0.000426444
0.000436563
0.000447747
0.000456457
0.000465023
0.000472084
0.000478462
0.000483866
0.000488584
0.000492564
0.000495174
0.000497073
0.000497984
0.000498134
0.000497814
0.000496959
0.000496086
0.0004944
0.000493668
0.000491145
0.000491841
0.000488427
0.000491989
0.000488404
0.000489399
0.000538819
0.000210245
0.000397426
0.000410228
0.00042211
0.000438446
0.000448804
0.00046215
0.000471986
0.000482141
0.000490326
0.000497855
0.000504213
0.00050983
0.000514739
0.000517958
0.000520598
0.000522073
0.0005227
0.00052285
0.000522385
0.000522
0.00052053
0.000520372
0.000517626
0.000519206
0.00051481
0.000520055
0.000514113
0.000515885
0.00056754
0.000222616
0.000424019
0.000437653
0.000443365
0.000460882
0.000470018
0.000484642
0.000494547
0.000505722
0.000514487
0.000522883
0.000529967
0.000536339
0.000542035
0.000545952
0.000549237
0.000551199
0.000552232
0.000552795
0.000552655
0.000552743
0.000551395
0.000551916
0.00054877
0.000551532
0.000545765
0.000553224
0.000544596
0.000546563
0.000602282
0.000241241
0.000459184
0.000474141
0.000473422
0.000492905
0.000499505
0.000515128
0.000524286
0.000536143
0.000545061
0.000554071
0.00056164
0.000568615
0.000574758
0.000579717
0.000583366
0.00058577
0.000587195
0.000588186
0.000588379
0.000589012
0.000587784
0.000589107
0.000585461
0.000589807
0.000582333
0.000592859
0.000580837
0.000582019
0.000643384
0.000264206
0.000500026
0.000517894
0.000511355
0.000533979
0.000536878
0.000553613
0.000561323
0.00057371
0.000582384
0.000591836
0.000599672
0.000607136
0.000613769
0.000619382
0.000623452
0.000626268
0.00062803
0.000629414
0.000629877
0.000631068
0.000629838
0.00063211
0.000627658
0.000633975
0.000624285
0.000638658
0.000622436
0.000620945
0.000690537
0.000290915
0.000544938
0.000567897
0.000556644
0.000583562
0.000581951
0.000600326
0.000605853
0.000618879
0.0006269
0.000636677
0.000644594
0.000652435
0.000659456
0.000665604
0.000670038
0.000673215
0.000675265
0.00067702
0.0006777
0.000679477
0.000678086
0.000681488
0.000675957
0.000684757
0.000672217
0.000691373
0.000669914
0.000662897
0.000743803
0.000321344
0.000593198
0.000623645
0.000608969
0.00064177
0.000634801
0.000655594
0.000658264
0.000672065
0.000679079
0.000689133
0.000696945
0.000705082
0.00071239
0.000718976
0.000723705
0.000727191
0.000729461
0.000731553
0.000732357
0.000734751
0.000733013
0.00073781
0.000730696
0.000742556
0.000726336
0.000751318
0.000723346
0.000706858
0.000803286
0.000355676
0.000644263
0.000684673
0.00066814
0.000708901
0.000695615
0.000719823
0.000718946
0.00073389
0.000739466
0.000749823
0.000757351
0.000765713
0.000773218
0.00078013
0.000785108
0.000788836
0.000791254
0.00079364
0.000794471
0.000797511
0.000795209
0.000801617
0.000792416
0.000808071
0.000787071
0.000819103
0.000782794
0.0007523
0.00086936
0.000394214
0.000697408
0.000749976
0.000734034
0.000785485
0.000764704
0.000793739
0.000788435
0.000804932
0.000808663
0.000819506
0.000826497
0.00083504
0.00084258
0.000849762
0.000854959
0.000858812
0.000861292
0.000863943
0.000864661
0.000868428
0.000865214
0.000873572
0.000861616
0.00088192
0.0008549
0.000895392
0.000848788
0.000798016
0.000942129
0.000437304
0.000752851
0.000821025
0.000807126
0.000872135
0.000842658
0.000878138
0.000867321
0.000886112
0.000887455
0.000898806
0.000905119
0.000913871
0.00092133
0.000928678
0.000933991
0.000937919
0.000940382
0.000943234
0.000943691
0.000948165
0.000943764
0.000954386
0.000938885
0.000964967
0.0009304
0.000980794
0.000921754
0.000842947
0.0010216
0.000485405
0.000810682
0.000897354
0.000887567
0.000969558
0.000930032
0.000974078
0.000956396
0.000978304
0.000976714
0.000988837
0.000994135
0.00100297
0.00101031
0.00101775
0.00102303
0.00102697
0.0010293
0.00103231
0.00103227
0.0010376
0.00103143
0.00104496
0.00102479
0.00105824
0.00101416
0.00107588
0.00100191
0.000886245
0.00110763
0.000538887
0.000869772
0.000978467
0.000975266
0.0010784
0.00102745
0.00108267
0.00105654
0.0010827
0.00107741
0.00109062
0.00109461
0.00110359
0.00111053
0.00111794
0.00112308
0.00112692
0.00112898
0.00113204
0.00113131
0.00113744
0.00112922
0.00114603
0.00112044
0.00116279
0.00110675
0.00118108
0.00108947
0.000927278
0.00119986
0.000598278
0.000928977
0.00106456
0.00107005
0.00119944
0.00113541
0.00120522
0.00116877
0.0012006
0.00119065
0.00120537
0.00120763
0.00121685
0.00122321
0.0012305
0.00123522
0.00123881
0.00124043
0.00124341
0.00124168
0.00124892
0.00123785
0.00125939
0.0012265
0.00127983
0.00120869
0.00129669
0.00118451
0.000965089
0.00129765
0.000664268
0.000987633
0.00115426
0.00117173
0.00133312
0.00125477
0.00134294
0.00129411
0.00133338
0.00131748
0.00133444
0.00133447
0.00134393
0.00134948
0.00135656
0.0013606
0.00136384
0.00136471
0.00136757
0.00136452
0.00137317
0.00135914
0.00138586
0.00134404
0.00141048
0.00132058
0.0014227
0.00128694
0.000998917
0.00140053
0.000737349
0.00104464
0.00124625
0.00127986
0.00147993
0.00138617
0.00149775
0.00143357
0.00148278
0.00145928
0.00147927
0.00147635
0.00148613
0.00149056
0.00149725
0.00150038
0.00150305
0.00150311
0.00150615
0.0015017
0.0015122
0.00149362
0.00152702
0.00147376
0.0015561
0.00144297
0.00155804
0.00139607
0.00102867
0.00150822
0.000818179
0.0010992
0.00133936
0.00139401
0.00163993
0.00153042
0.00167128
0.00158851
0.00165037
0.00161763
0.00164163
0.001635
0.00164536
0.00164834
0.00165452
0.00165677
0.00165881
0.00165777
0.00166084
0.00165419
0.00166722
0.00164253
0.00168417
0.00161671
0.00171808
0.00157632
0.00170136
0.00151135
0.00105401
0.00161949
0.000907318
0.00115058
0.00143224
0.00151321
0.00181333
0.00168809
0.00186578
0.00176025
0.00183847
0.00179406
0.00182352
0.0018123
0.00182343
0.00182459
0.00182994
0.00183122
0.00183219
0.00182984
0.00183284
0.00182363
0.00183977
0.00180762
0.00185913
0.00177393
0.0018978
0.0017207
0.00185066
0.0016319
0.00107506
0.0017332
0.00100544
0.00119827
0.00152336
0.00163622
0.00199947
0.00186002
0.00208313
0.00195031
0.00204936
0.00199007
0.00202675
0.00200971
0.00202216
0.00202095
0.0020256
0.0020252
0.00202512
0.00202097
0.00202412
0.0020116
0.00203172
0.00199024
0.00205384
0.00194642
0.00209634
0.00187611
0.00200298
0.00175656
0.00109213
0.0018476
0.00111321
0.00124187
0.00161149
0.00176148
0.00219676
0.00204702
0.00232612
0.00216021
0.00228576
0.00220742
0.00225354
0.00222917
0.00224342
0.00223939
0.00224311
0.00224081
0.00223949
0.0022334
0.00223683
0.0022203
0.00224532
0.00219182
0.00227031
0.00213496
0.00231415
0.00204254
0.0021546
0.00188376
0.00110559
0.00196111
0.00123132
0.00128127
0.00169498
0.00188716
0.00240263
0.00224954
0.00259775
0.00239223
0.00255059
0.00244801
0.00250629
0.00247247
0.00248938
0.00248174
0.00248477
0.00248026
0.00247777
0.00246932
0.00247339
0.00245167
0.00248282
0.00241393
0.0025099
0.00233981
0.00255164
0.0022196
0.00230143
0.00201157
0.00111581
0.00207183
0.00136049
0.00131653
0.00177261
0.00201099
0.00261425
0.00246729
0.00290144
0.00264888
0.00284862
0.00271489
0.00278802
0.00274208
0.00276253
0.00275054
0.00275293
0.002746
0.00274231
0.00273117
0.00273622
0.00270799
0.00274635
0.00265746
0.00277415
0.00256111
0.00280942
0.00240656
0.00243908
0.00213787
0.0011233
0.00217836
0.00150161
0.00134775
0.00184328
0.00213001
0.00282614
0.00269964
0.00312311
0.00293307
0.00312243
0.00301162
0.00310327
0.00304107
0.00306575
0.00304819
0.00305024
0.00304058
0.00303586
0.00302144
0.00302752
0.00299036
0.00303725
0.00292332
0.00306441
0.00280016
0.00308798
0.00260247
0.00256414
0.00226084
0.00112849
0.00227901
0.00165522
0.00137499
0.00190656
0.00224125
0.00302868
0.00294373
0.00312195
0.00312105
0.00312119
0.00312106
0.00312105
0.00312101
0.00312098
0.00312096
0.00312095
0.00312098
0.00312106
0.00312112
0.00312124
0.00312128
0.00312151
0.00312137
0.00312205
0.00305829
0.00312344
0.00280778
0.00266893
0.00238088
0.00113175
0.00237207
0.00182148
0.00139797
0.00196229
0.00234705
0.00312506
0.00312044
0.00312104
0.00311998
0.00312021
0.00312003
0.00312006
0.00312001
0.00312
0.00311999
0.00311999
0.00312002
0.00312009
0.00312016
0.00312027
0.0031203
0.00312055
0.00312037
0.0031211
0.00312025
0.00312254
0.00301745
0.00275362
0.00249353
0.00113354
0.0024567
0.00200023
0.00141733
0.00200976
0.0024501
0.00312445
0.00311955
0.00312033
0.00311912
0.00311944
0.00311922
0.00311926
0.00311922
0.00311922
0.00311921
0.00311922
0.00311925
0.00311932
0.00311938
0.00311949
0.00311951
0.00311977
0.00311955
0.00312033
0.00311936
0.00312182
0.00311932
0.00282783
0.00259809
0.00113411
0.00253252
0.00219146
0.00143401
0.0020492
0.00254622
0.00312397
0.00311882
0.00311977
0.00311843
0.00311883
0.00311856
0.00311863
0.00311858
0.00311859
0.00311858
0.0031186
0.00311863
0.0031187
0.00311876
0.00311887
0.00311887
0.00311914
0.00311887
0.0031197
0.00311863
0.00312125
0.00311855
0.00289663
0.00269241
0.00113377
0.00259958
0.00228733
0.00144829
0.00208153
0.0026327
0.00312359
0.00311823
0.00311935
0.00311787
0.00311834
0.00311804
0.00311814
0.00311808
0.00311809
0.00311809
0.0031181
0.00311814
0.00311821
0.00311825
0.00311837
0.00311835
0.00311862
0.0031183
0.00311919
0.00311803
0.00312079
0.00311792
0.00294919
0.0027753
0.00113269
0.00265796
0.00228697
0.00146052
0.00210832
0.00270826
0.00312329
0.00311775
0.00311902
0.00311741
0.00311796
0.00311762
0.00311774
0.00311767
0.00311769
0.00311769
0.00311771
0.00311774
0.0031178
0.00311784
0.00311795
0.00311792
0.0031182
0.00311784
0.00311878
0.00311754
0.00312043
0.0031174
0.00298375
0.00284709
0.00113111
0.00270814
0.00228668
0.00147096
0.00213195
0.00277666
0.00312306
0.00311737
0.00311877
0.00311704
0.00311767
0.00311728
0.00311743
0.00311735
0.00311738
0.00311737
0.00311739
0.00311742
0.00311748
0.00311751
0.00311762
0.00311756
0.00311786
0.00311746
0.00311845
0.00311712
0.00312016
0.00311698
0.00300493
0.00290814
0.00112919
0.00275079
0.00228645
0.00147987
0.00215229
0.00283687
0.00312289
0.00311705
0.00311858
0.00311674
0.00311743
0.00311701
0.00311717
0.00311709
0.00311712
0.00311712
0.00311713
0.00311716
0.00311722
0.00311724
0.00311734
0.00311728
0.00311758
0.00311714
0.00311819
0.00311679
0.00311995
0.00311663
0.0030168
0.00295971
0.00112708
0.00278677
0.00228626
0.00148744
0.00216919
0.00288814
0.00312275
0.0031168
0.00311844
0.00311649
0.00311725
0.00311678
0.00311698
0.00311688
0.00311692
0.00311691
0.00311693
0.00311696
0.003117
0.00311702
0.00311712
0.00311704
0.00311736
0.00311688
0.00311798
0.00311651
0.00311978
0.00311634
0.00302011
0.00300222
0.00112484
0.00281703
0.00228611
0.00149387
0.00218315
0.00293145
0.00312265
0.00311659
0.00311833
0.00311629
0.00311711
0.0031166
0.00311682
0.00311671
0.00311676
0.00311675
0.00311677
0.00311679
0.00311683
0.00311684
0.00311695
0.00311685
0.00311717
0.00311666
0.00311781
0.00311628
0.00311965
0.0031161
0.00301692
0.0030363
0.00112251
0.00284222
0.00228599
0.00149931
0.00219425
0.0029676
0.00312258
0.00311642
0.00311825
0.00311612
0.003117
0.00311645
0.00311669
0.00311658
0.00311663
0.00311662
0.00311664
0.00311665
0.0031167
0.0031167
0.0031168
0.00311669
0.00311703
0.00311648
0.00311768
0.00311608
0.00311957
0.00311591
0.00300853
0.00306336
0.0011202
0.00286307
0.00228588
0.00150389
0.00220318
0.00299814
0.00312254
0.00311628
0.00311821
0.00311599
0.00311692
0.00311633
0.00311659
0.00311647
0.00311653
0.00311651
0.00311653
0.00311654
0.00311658
0.00311658
0.00311668
0.00311655
0.00311691
0.00311632
0.00311758
0.00311592
0.00311953
0.00311575
0.00299605
0.00308389
0.00111788
0.00288009
0.0022858
0.00150773
0.00221026
0.00302372
0.00312252
0.00311616
0.00311818
0.00311588
0.00311686
0.00311622
0.00311651
0.00311637
0.00311644
0.00311642
0.00311644
0.00311645
0.00311649
0.00311648
0.00311658
0.00311644
0.00311681
0.00311618
0.0031175
0.00311577
0.0031195
0.00311562
0.0029808
0.00309902
0.00111563
0.00289389
0.00228573
0.00151097
0.00221558
0.00304505
0.00312252
0.00311605
0.00311816
0.00311579
0.00311681
0.00311613
0.00311644
0.00311629
0.00311637
0.00311634
0.00311637
0.00311638
0.00311641
0.0031164
0.0031165
0.00311634
0.00311673
0.00311607
0.00311744
0.00311565
0.00311948
0.00311552
0.00296445
0.00311
0.00111344
0.00290496
0.00228567
0.00151371
0.00221954
0.0030625
0.00312252
0.00311596
0.00311815
0.00311572
0.00311678
0.00311605
0.00311639
0.00311623
0.00311631
0.00311628
0.00311631
0.00311631
0.00311635
0.00311633
0.00311643
0.00311626
0.00311667
0.00311596
0.00311739
0.00311555
0.00311947
0.00311543
0.00294751
0.0031172
0.00111134
0.00291381
0.00228563
0.001516
0.00222243
0.00307636
0.00312254
0.00311589
0.00311815
0.00311565
0.00311675
0.00311598
0.00311634
0.00311617
0.00311626
0.00311623
0.00311625
0.00311626
0.00311629
0.00311627
0.00311638
0.00311619
0.00311661
0.00311587
0.00311735
0.00311547
0.00311946
0.00311536
0.00293058
0.00311715
0.00110933
0.00292091
0.00228559
0.00151793
0.00222434
0.003087
0.00312256
0.00311583
0.00311816
0.0031156
0.00311674
0.00311592
0.00311631
0.00311612
0.00311621
0.00311618
0.00311621
0.00311621
0.00311624
0.00311621
0.00311633
0.00311612
0.00311657
0.00311579
0.00311733
0.0031154
0.00311947
0.0031153
0.00291394
0.00311711
0.00110743
0.00292658
0.00228556
0.00151956
0.00222544
0.00309493
0.00312259
0.00311578
0.00311817
0.00311556
0.00311672
0.00311587
0.00311628
0.00311608
0.00311618
0.00311614
0.00311617
0.00311617
0.0031162
0.00311616
0.00311628
0.00311606
0.00311653
0.00311572
0.00311731
0.00311534
0.00311947
0.00311526
0.00289825
0.00311708
0.00110567
0.00293108
0.00228554
0.00152093
0.00222598
0.00310091
0.00312262
0.00311573
0.00311818
0.00311552
0.00311673
0.00311583
0.00311625
0.00311604
0.00311615
0.00311611
0.00311613
0.00311613
0.00311616
0.00311612
0.00311625
0.00311601
0.0031165
0.00311565
0.00311731
0.00311529
0.00311949
0.00311522
0.00288372
0.00311705
0.00110405
0.00293463
0.00228552
0.0015221
0.00222614
0.00310536
0.00312265
0.0031157
0.0031182
0.00311549
0.00311674
0.00311579
0.00311624
0.003116
0.00311612
0.00311607
0.0031161
0.0031161
0.00311613
0.00311608
0.00311621
0.00311596
0.00311648
0.0031156
0.00311731
0.00311525
0.0031195
0.00311518
0.00286977
0.00311703
0.00110257
0.00293742
0.0022855
0.00152308
0.00222605
0.00310862
0.00312267
0.00311566
0.00311822
0.00311546
0.00311674
0.00311575
0.00311622
0.00311597
0.0031161
0.00311605
0.00311608
0.00311607
0.0031161
0.00311605
0.00311619
0.00311592
0.00311646
0.00311555
0.00311732
0.00311522
0.00311952
0.00311516
0.00285671
0.00311702
0.0011012
0.00293961
0.00228549
0.00152393
0.0022258
0.00311095
0.0031227
0.00311564
0.00311824
0.00311543
0.00311675
0.00311572
0.00311621
0.00311594
0.00311608
0.00311602
0.00311605
0.00311604
0.00311608
0.00311602
0.00311616
0.00311588
0.00311644
0.00311551
0.00311733
0.00311519
0.00311954
0.00311513
0.0028446
0.00311701
0.00109996
0.00294133
0.00228547
0.00152468
0.00222541
0.00311238
0.00312272
0.00311561
0.00311825
0.00311541
0.00311677
0.00311569
0.0031162
0.00311592
0.00311606
0.003116
0.00311603
0.00311602
0.00311606
0.00311599
0.00311614
0.00311584
0.00311643
0.00311547
0.00311734
0.00311517
0.00311956
0.00311511
0.00283361
0.003117
0.00109884
0.00294268
0.00228547
0.00152533
0.00222496
0.00311318
0.00312274
0.00311559
0.00311827
0.00311539
0.00311678
0.00311567
0.0031162
0.00311589
0.00311604
0.00311598
0.00311601
0.003116
0.00311604
0.00311596
0.00311613
0.00311581
0.00311642
0.00311544
0.00311735
0.00311515
0.00311958
0.0031151
0.00282346
0.00311699
0.00109781
0.00294373
0.00228546
0.00152589
0.00222452
0.00311352
0.00312276
0.00311558
0.00311829
0.00311537
0.0031168
0.00311564
0.0031162
0.00311587
0.00311603
0.00311596
0.003116
0.00311598
0.00311602
0.00311594
0.00311611
0.00311578
0.00311642
0.00311542
0.00311736
0.00311514
0.0031196
0.00311508
0.00281404
0.00311698
0.00109688
0.00294455
0.00228545
0.00152637
0.00222409
0.00311352
0.00312278
0.00311556
0.00311831
0.00311536
0.00311681
0.00311562
0.0031162
0.00311586
0.00311602
0.00311594
0.00311599
0.00311596
0.00311601
0.00311592
0.0031161
0.00311575
0.00311642
0.00311539
0.00311738
0.00311513
0.00311962
0.00311507
0.00280534
0.00311698
0.00109603
0.00294518
0.00228545
0.00152679
0.00222373
0.00311323
0.00312279
0.00311555
0.00311833
0.00311535
0.00311683
0.0031156
0.0031162
0.00311584
0.00311601
0.00311593
0.00311597
0.00311594
0.00311599
0.0031159
0.00311609
0.00311573
0.00311643
0.00311537
0.00311739
0.00311512
0.00311963
0.00311506
0.00279732
0.00311698
0.00109526
0.00294566
0.00228544
0.00152715
0.00222341
0.00311289
0.00312281
0.00311554
0.00311834
0.00311534
0.00311684
0.00311558
0.0031162
0.00311582
0.00311601
0.00311591
0.00311596
0.00311593
0.00311598
0.00311588
0.00311609
0.00311571
0.00311643
0.00311536
0.00311741
0.00311511
0.00311965
0.00311505
0.00279
0.00311698
0.00109456
0.00294602
0.00228544
0.00152746
0.00222315
0.0031126
0.00312282
0.00311553
0.00311836
0.00311533
0.00311686
0.00311556
0.0031162
0.00311581
0.003116
0.0031159
0.00311596
0.00311592
0.00311598
0.00311587
0.00311608
0.00311569
0.00311643
0.00311534
0.00311742
0.0031151
0.00311966
0.00311504
0.00278334
0.00311697
0.00109394
0.00294631
0.00228544
0.00152773
0.00222293
0.00311239
0.00312283
0.00311552
0.00311837
0.00311532
0.00311687
0.00311555
0.00311621
0.0031158
0.003116
0.00311589
0.00311595
0.00311591
0.00311597
0.00311586
0.00311608
0.00311567
0.00311644
0.00311533
0.00311743
0.0031151
0.00311967
0.00311503
0.0027774
0.00311582
0.00109339
0.00294654
0.00228543
0.00152795
0.00222275
0.00311222
0.00312284
0.00311552
0.00311839
0.00311531
0.00311688
0.00311553
0.00311622
0.00311578
0.003116
0.00311588
0.00311594
0.0031159
0.00311596
0.00311584
0.00311608
0.00311565
0.00311645
0.00311532
0.00311744
0.00311509
0.00311969
0.00311503
0.00277216
0.00311476
0.00109289
0.00294673
0.00228543
0.00152814
0.0022226
0.00311215
0.00312284
0.00311551
0.0031184
0.00311531
0.0031169
0.00311552
0.00311622
0.00311577
0.003116
0.00311587
0.00311594
0.00311589
0.00311596
0.00311583
0.00311608
0.00311564
0.00311645
0.00311531
0.00311745
0.00311509
0.0031197
0.00311502
0.00276767
0.00311386
0.00109246
0.00294685
0.00228543
0.0015283
0.00222251
0.00311219
0.00312285
0.00311551
0.00311841
0.00311531
0.00311691
0.00311551
0.00311623
0.00311576
0.00311599
0.00311587
0.00311594
0.00311588
0.00311596
0.00311582
0.00311608
0.00311562
0.00311646
0.0031153
0.00311746
0.00311509
0.0031197
0.00311502
0.00276379
0.00311312
0.00109208
0.00294694
0.00228543
0.00152845
0.00222251
0.00311242
0.00312285
0.0031155
0.00311842
0.0031153
0.00311692
0.0031155
0.00311623
0.00311575
0.00311599
0.00311586
0.00311593
0.00311588
0.00311595
0.00311581
0.00311608
0.00311561
0.00311647
0.0031153
0.00311747
0.00311508
0.00311971
0.00311501
0.00276053
0.00311253
0.00109176
0.002947
0.00228543
0.00152857
0.00222263
0.00311287
0.00312286
0.0031155
0.00311842
0.0031153
0.00311693
0.00311549
0.00311624
0.00311574
0.00311599
0.00311585
0.00311593
0.00311587
0.00311595
0.00311581
0.00311608
0.0031156
0.00311647
0.00311529
0.00311748
0.00311508
0.00311972
0.00311501
0.00275784
0.00311213
0.00109149
0.00294704
0.00228543
0.00152869
0.00222289
0.00311366
0.00312286
0.0031155
0.00311842
0.0031153
0.00311693
0.00311549
0.00311624
0.00311574
0.00311599
0.00311585
0.00311593
0.00311587
0.00311595
0.0031158
0.00311608
0.00311559
0.00311648
0.00311529
0.00311748
0.00311508
0.00311972
0.00311501
0.00275578
0.00311197
0.00109127
0.00294706
0.00228543
0.00152879
0.00222336
0.00311487
0.00312285
0.0031155
0.00311843
0.00311529
0.00311694
0.00311548
0.00311624
0.00311573
0.003116
0.00311584
0.00311593
0.00311586
0.00311595
0.00311579
0.00311608
0.00311558
0.00311648
0.00311528
0.00311749
0.00311508
0.00311972
0.00311501
0.00275437
0.00311212
0.00109111
0.00294707
0.00228543
0.00152888
0.0022241
0.0031167
0.00312285
0.00311549
0.00311843
0.00311529
0.00311694
0.00311548
0.00311625
0.00311573
0.003116
0.00311584
0.00311593
0.00311586
0.00311595
0.00311579
0.00311608
0.00311558
0.00311648
0.00311528
0.00311749
0.00311508
0.00311973
0.003115
0.0027537
0.00311263
0.00109101
0.00294709
0.00228543
0.00152895
0.00222517
0.00311858
0.00312285
0.00311549
0.00311842
0.00311529
0.00311694
0.00311547
0.00311625
0.00311572
0.003116
0.00311584
0.00311593
0.00311585
0.00311595
0.00311578
0.00311608
0.00311557
0.00311649
0.00311528
0.00311749
0.00311508
0.00311972
0.003115
0.00275385
0.0031136
0.00109098
0.00294714
0.00228543
0.00152903
0.00222669
0.00311857
0.00312284
0.00311549
0.00311842
0.00311529
0.00311694
0.00311547
0.00311625
0.00311572
0.003116
0.00311584
0.00311593
0.00311585
0.00311595
0.00311578
0.00311608
0.00311557
0.00311648
0.00311528
0.00311749
0.00311508
0.00311972
0.003115
0.00275496
0.00311513
0.00109101
0.00294721
0.00228543
0.00152911
0.00222867
0.00311857
0.00312282
0.00311549
0.00311841
0.00311529
0.00311693
0.00311547
0.00311625
0.00311572
0.00311599
0.00311583
0.00311593
0.00311585
0.00311595
0.00311578
0.00311608
0.00311557
0.00311648
0.00311528
0.00311748
0.00311507
0.00311972
0.003115
0.00275709
0.00311697
0.00109113
0.00294734
0.00228543
0.00152919
0.00223133
0.00311857
0.0031228
0.00311549
0.0031184
0.00311528
0.00311692
0.00311547
0.00311624
0.00311572
0.00311599
0.00311583
0.00311593
0.00311585
0.00311595
0.00311578
0.00311608
0.00311557
0.00311648
0.00311527
0.00311747
0.00311507
0.00311971
0.003115
0.00276047
0.00311697
0.00109134
0.00294754
0.00228543
0.00152927
0.00223446
0.00311857
0.00312278
0.00311549
0.00311838
0.00311528
0.00311691
0.00311548
0.00311624
0.00311572
0.00311599
0.00311584
0.00311593
0.00311585
0.00311595
0.00311578
0.00311607
0.00311558
0.00311647
0.00311528
0.00311746
0.00311507
0.0031197
0.003115
0.00276497
0.00311697
0.00109163
0.0029478
0.00228543
0.00152938
0.00223835
0.00311856
0.00312275
0.00311549
0.00311836
0.00311528
0.00311689
0.00311548
0.00311623
0.00311573
0.00311599
0.00311584
0.00311593
0.00311585
0.00311594
0.00311578
0.00311607
0.00311558
0.00311646
0.00311528
0.00311745
0.00311507
0.00311968
0.003115
0.00277071
0.00311697
0.001092
0.00294812
0.00228543
0.00152947
0.00224242
0.00311856
0.00312272
0.00311549
0.00311833
0.00311528
0.00311687
0.00311549
0.00311622
0.00311574
0.00311599
0.00311584
0.00311593
0.00311586
0.00311594
0.00311579
0.00311606
0.00311559
0.00311645
0.00311528
0.00311743
0.00311507
0.00311966
0.003115
0.00277707
0.00311697
0.00109242
0.00294849
0.00228543
0.00152957
0.00224681
0.00311856
0.00312268
0.00311549
0.0031183
0.00311529
0.00311685
0.0031155
0.00311621
0.00311574
0.00311599
0.00311584
0.00311593
0.00311586
0.00311594
0.00311579
0.00311606
0.0031156
0.00311644
0.00311528
0.00311741
0.00311507
0.00311965
0.003115
0.00278459
0.00311697
0.00109291
0.00294892
0.00311549
0.00311827
0.00311529
0.00311682
0.00311551
0.0031162
0.00311576
0.00311598
0.00311585
0.00311593
0.00311586
0.00311594
0.0031158
0.00311605
0.00311561
0.00311643
0.00311529
0.00311739
0.00311507
0.00311963
0.00311501
0.00279095
0.00311697
0.00109335
0.00294923
0.00311826
0.00311529
0.00311681
0.00311552
0.00311619
0.00311576
0.00311599
0.00311585
0.00311593
0.00311586
0.00311594
0.00311581
0.00311605
0.00311562
0.00311641
0.0031153
0.00311737
0.00311507
0.00311961
0.00311501
0.00279831
0.00311697
0.00109386
0.00294956
0.00311677
0.00311555
0.00311617
0.00311578
0.00311598
0.00311586
0.00311593
0.00311587
0.00311593
0.00311582
0.00311604
0.00311564
0.00311641
0.0031153
0.00311737
0.00311507
0.00311961
0.00311501
0.00280175
0.00311697
0.00109419
0.00294956
0.00311587
0.00311594
0.00311582
0.00311604
0.00311565
0.00311639
0.00311531
0.00311735
0.00311507
0.00311959
0.00311502
0.0028067
0.00311697
0.0010946
0.00294952
0.00311594
0.00311584
0.00311604
0.00311566
0.00311639
0.00311532
0.00311736
0.00311508
0.0031196
0.00311502
0.00280696
0.00311697
0.0010948
0.00294914
0.00311586
0.00311603
0.00311568
0.00311638
0.00311533
0.00311736
0.00311508
0.0031196
0.00311503
0.00281009
0.00311697
0.00109516
0.00294878
0.00311604
0.0031157
0.00311637
0.00311534
0.00311735
0.00311509
0.00311959
0.00311503
0.00281098
0.00311697
0.00109545
0.00294828
0.00311535
0.00311734
0.00311509
0.00311958
0.00311504
0.00281519
0.00311697
0.00109593
0.00294781
0.000250604
0.00192795
0.00190127
0.00164156
0.00158248
0.00179495
0.00234919
0.00328984
0.00450624
0.00574878
0.00661373
0.00721205
0.00786875
0.00769905
0.00642916
0.00522286
0.00435993
0.00378073
0.00337289
0.00305818
0.00279085
0.00255117
0.00232439
0.00211841
0.001918
0.0017521
0.00159573
0.0014723
0.00132063
0.000811232
0.000293222
0.00264303
0.00281766
0.00227483
0.00219639
0.00279071
0.00380368
0.00472181
0.00519674
0.00536579
0.0053516
0.00523706
0.00508226
0.00497019
0.00489049
0.00485917
0.00484616
0.00480446
0.00471204
0.00454309
0.00433169
0.0040496
0.00376812
0.00344696
0.003133
0.00287559
0.00249919
0.00252248
0.00208147
0.00246098
0.000306913
0.00293567
0.00232407
0.00209198
0.00241184
0.00329356
0.00413816
0.00468927
0.00494697
0.00509916
0.0051926
0.00526655
0.00531935
0.00534084
0.00532139
0.005247
0.0051171
0.00494247
0.00474509
0.00452446
0.00429504
0.00404981
0.00379899
0.00356777
0.00328564
0.00314647
0.00277146
0.0028326
0.0023101
0.00439553
0.000331642
0.00196044
0.00179636
0.00212633
0.00277283
0.00354624
0.00396595
0.00428346
0.00449349
0.00469698
0.00486219
0.00500254
0.00510426
0.00516555
0.0051909
0.00518039
0.00513879
0.00506172
0.00495364
0.00480908
0.00464101
0.00445248
0.00424061
0.00406897
0.00380237
0.00377459
0.00337727
0.00379011
0.00300979
0.00373844
0.000369021
0.00152613
0.00169468
0.00225887
0.00275184
0.00332151
0.00369114
0.00409073
0.00439511
0.00469189
0.00492938
0.00513177
0.00528785
0.00539981
0.00546333
0.00547047
0.00543033
0.00534759
0.00523334
0.00509319
0.00493138
0.00476693
0.00456322
0.00443791
0.00415304
0.00419396
0.0036988
0.00416553
0.0031521
0.00431136
0.000382031
0.00156232
0.00185474
0.00237576
0.00281201
0.00336018
0.00374636
0.00418135
0.00450735
0.0048266
0.00507546
0.00528727
0.00544613
0.00555685
0.00562452
0.00565166
0.0056422
0.00559757
0.00552182
0.00542113
0.00529034
0.00516628
0.00497607
0.0049096
0.00460464
0.0047496
0.0041515
0.00482239
0.00345622
0.00452893
0.000393155
0.00176694
0.00218495
0.00258922
0.00304996
0.00355331
0.00394618
0.00438181
0.00471194
0.00504295
0.00530186
0.00553037
0.00570467
0.00583888
0.00592722
0.00597092
0.00597312
0.00593922
0.00587295
0.0057876
0.00566509
0.00556956
0.00537668
0.00536172
0.00501159
0.00523889
0.0044947
0.005281
0.00362571
0.00503206
0.000420672
0.0020952
0.00267784
0.00291167
0.00343031
0.00386319
0.00427063
0.00468655
0.00501384
0.00534409
0.00560122
0.00583385
0.00601147
0.00615112
0.00624628
0.00630393
0.00632439
0.00631282
0.00626859
0.0062102
0.00610384
0.00604459
0.00584803
0.00589339
0.00548884
0.00582618
0.0048986
0.00585153
0.00382857
0.00544995
0.000455918
0.00254894
0.00330371
0.00331566
0.00391586
0.00425497
0.00468418
0.0050644
0.00538937
0.00571372
0.00596895
0.00620622
0.00639067
0.00654176
0.00664915
0.0067209
0.00675456
0.00675729
0.00672565
0.00668646
0.00658702
0.00656151
0.00634689
0.00645636
0.00597209
0.00641672
0.00527075
0.00635122
0.00399439
0.00592012
0.000497954
0.00305516
0.00401399
0.00377346
0.0044922
0.00471959
0.00518557
0.00552254
0.00585066
0.00616278
0.00641533
0.00665351
0.00683922
0.00699623
0.00711114
0.00719359
0.00724032
0.00725936
0.0072421
0.00722637
0.00713191
0.00714635
0.00690735
0.00709111
0.00650507
0.00707259
0.00566154
0.00686104
0.00415381
0.00597512
0.000546469
0.00354956
0.00476786
0.0042669
0.00515483
0.00525229
0.00577336
0.00605703
0.00639402
0.00669002
0.00693887
0.00717745
0.00736385
0.00752761
0.00765087
0.00774319
0.00780117
0.00783362
0.00782741
0.00783278
0.0077378
0.00779322
0.00751723
0.0077828
0.007067
0.00775606