/*--------------------------------*- C++ -*----------------------------------*\
  =========                 |
  \\      /  F ield         | OpenFOAM: The Open Source CFD Toolbox
   \\    /   O peration     | Website:  https://openfoam.org
    \\  /    A nd           | Version:  10
     \\/     M anipulation  |
\*---------------------------------------------------------------------------*/
FoamFile
{
    format      ascii;
    class       volScalarField;
    location    "0.05";
    object      omega_0;
}
// * * * * * * * * * * * * * * * * * * * * * * * * * * * * * * * * * * * * * //

dimensions      [0 0 -1 0 0 0 0];

internalField   nonuniform List<scalar> 
116798
(
60.5413
61.4177
59.3795
56.4061
55.1082
54.8646
54.9643
55.0116
54.8943
54.678
54.4514
54.2648
54.165
54.1269
54.0702
53.9349
53.7447
53.6008
53.553
53.6091
53.7639
54.0144
54.3539
54.7959
55.3359
56.0076
56.7127
57.5357
57.9429
56.729
54.926
44.0936
40.9361
39.547
39.1965
39.1267
38.9705
38.6656
38.272
37.8602
37.4723
37.1241
36.8217
36.5736
36.3956
36.2854
36.2369
36.2379
36.2804
36.3622
36.4838
36.6488
36.8573
37.119
37.4193
37.7863
38.117
38.4786
38.3852
36.5205
58.754
44.4119
42.6327
41.6767
41.1308
40.4625
39.6577
38.8379
38.1073
37.5015
37.0167
36.6338
36.3333
36.1008
35.9366
35.8311
35.7786
35.7677
35.7908
35.8477
35.9391
36.068
36.2306
36.4362
36.658
36.9353
37.1406
37.4081
37.1269
35.5534
61.5762
43.6619
43.2139
42.0437
40.8262
39.577
38.5024
37.646
36.9792
36.4593
36.053
35.7342
35.482
35.2816
35.1337
35.0326
34.9763
34.9585
34.9722
35.0148
35.0839
35.1822
35.3008
35.4527
35.6007
35.8027
35.9064
36.1078
35.7178
34.3709
59.5086
41.8898
41.5587
40.1878
38.9221
37.841
37.001
36.3482
35.8365
35.4314
35.1091
34.8513
34.6438
34.4758
34.3505
34.2637
34.2133
34.1933
34.1976
34.2239
34.2696
34.3377
34.4178
34.5256
34.6195
34.7661
34.7936
34.9523
34.5656
33.3012
54.4069
39.2396
38.7134
37.8005
36.949
36.2323
35.6552
35.1908
34.8136
34.5074
34.258
34.0547
33.8883
33.7508
33.6454
33.5718
33.5277
33.5077
33.506
33.5209
33.5494
33.5953
33.6468
33.724
33.7756
33.8866
33.8661
33.9974
33.638
32.4054
49.9709
36.7344
36.2442
35.8744
35.338
34.9028
34.5143
34.1939
33.9219
33.6958
33.507
33.3501
33.2193
33.1094
33.0227
32.9622
32.9252
32.9066
32.9016
32.9087
32.9252
32.955
32.9862
33.0404
33.0648
33.1503
33.1046
33.2108
32.9008
31.674
47.0589
34.8599
34.5035
34.4475
34.0786
33.8314
33.5687
33.3541
33.1611
32.9979
32.8576
32.7388
32.6377
32.5513
32.4808
32.432
32.4017
32.3854
32.3789
32.3812
32.3898
32.4089
32.4266
32.4652
32.4726
32.5403
32.4817
32.568
32.3155
31.0812
45.1581
33.559
33.3096
33.3821
33.1056
32.978
32.797
32.6575
32.5217
32.4061
32.3033
32.2147
32.1377
32.0707
32.0144
31.9758
31.9515
31.9378
31.9311
31.9308
31.9345
31.9466
31.9554
31.9838
31.9805
32.0353
31.972
32.0422
31.8512
30.6007
43.8516
32.6474
32.4735
32.5769
32.3563
32.3027
32.1735
32.086
31.9906
31.91
31.8356
31.7704
31.7125
31.6611
31.6169
31.5867
31.5678
31.5567
31.5506
31.549
31.55
31.5578
31.5614
31.5826
31.5735
31.6188
31.5569
31.6123
31.4826
30.2111
42.914
31.9885
31.8704
31.9627
31.779
31.7696
31.6734
31.621
31.5534
31.4982
31.4447
31.3972
31.354
31.315
31.2808
31.2576
31.2432
31.2346
31.2295
31.2277
31.2273
31.2325
31.233
31.2492
31.2374
31.2758
31.2182
31.2607
31.1884
29.8946
42.2207
31.4997
31.4252
31.4908
31.3325
31.3482
31.2742
31.2448
31.196
31.1587
31.1203
31.0861
31.0541
31.0249
30.9987
30.9812
30.9706
30.9642
30.9602
30.9586
30.9578
30.9614
30.9601
30.9731
30.9608
30.9939
30.9426
30.9728
30.9533
29.637
41.6972
31.1298
31.0931
31.1255
30.9869
31.014
30.9559
30.9419
30.9058
30.8808
30.853
30.8285
30.805
30.7833
30.7635
30.7505
30.7429
30.7384
30.7355
30.7344
30.7335
30.736
30.7342
30.745
30.734
30.7615
30.7178
30.7371
30.7636
29.4271
41.2958
30.8448
30.8428
30.8404
30.7192
30.7484
30.7013
30.698
30.6711
30.6545
30.6342
30.6166
30.5993
30.5832
30.5684
30.559
30.5537
30.5507
30.5488
30.548
30.5472
30.5494
30.5477
30.5577
30.548
30.5701
30.5352
30.5438
30.6119
29.2559
40.984
30.6209
30.6453
30.6159
30.5109
30.5379
30.4979
30.5008
30.4814
30.471
30.4559
30.4431
30.4302
30.4183
30.4073
30.4005
30.397
30.3951
30.3939
30.3936
30.3932
30.3955
30.3951
30.4035
30.3951
30.4122
30.3868
30.3851
30.49
29.1162
40.7394
30.4444
30.489
30.4385
30.3477
30.3712
30.3359
30.3414
30.3269
30.3213
30.3107
30.3016
30.292
30.2831
30.2749
30.27
30.2677
30.2666
30.2661
30.2664
30.2669
30.2696
30.2696
30.2764
30.269
30.2824
30.2663
30.255
30.3924
29.0023
40.5484
30.304
30.3655
30.2977
30.2197
30.2383
30.2081
30.2134
30.2019
30.1991
30.1918
30.1858
30.179
30.1725
30.1665
30.163
30.1617
30.1614
30.1616
30.1626
30.1637
30.1662
30.1666
30.1708
30.1657
30.1758
30.1685
30.1483
30.3143
28.9094
40.3977
30.1915
30.2672
30.1855
30.1194
30.1321
30.1064
30.1116
30.1017
30.1002
30.095
30.0911
30.0864
30.082
30.0778
30.0756
30.0752
30.0756
30.0764
30.0776
30.079
30.0811
30.0808
30.084
30.0814
30.0879
30.0895
30.0611
30.2518
28.8337
40.2778
30.101
30.1887
30.0956
30.0406
30.0471
30.0254
30.03
30.022
30.0212
30.017
30.0143
30.0111
30.0082
30.0054
30.0043
30.0045
30.0054
30.0066
30.0079
30.0091
30.0102
30.0106
30.0129
30.0125
30.0157
30.0261
29.9899
30.2019
28.772
40.1823
30.0281
30.126
30.0233
29.9784
29.9791
29.9607
29.9643
29.9579
29.9578
29.9546
29.9526
29.9505
29.9485
29.9467
29.9462
29.9469
29.948
29.9491
29.95
29.9512
29.9522
29.9534
29.9545
29.9561
29.9566
29.9752
29.9317
30.1621
28.7215
40.1059
29.9691
30.0757
29.9649
29.9291
29.9245
29.9096
29.9115
29.9063
29.9064
29.9041
29.9029
29.9013
29.8999
29.8988
29.8987
29.8996
29.9006
29.9018
29.9029
29.9042
29.9051
29.9066
29.9063
29.9104
29.9084
29.9346
29.8842
30.1305
28.6803
40.0447
29.9212
30.0353
29.9178
29.89
29.8805
29.869
29.8695
29.865
29.865
29.8632
29.8625
29.8614
29.8605
29.8598
29.86
29.861
29.8621
29.8634
29.8645
29.8659
29.8663
29.8682
29.8669
29.8733
29.8691
29.9023
29.8455
30.1055
28.6468
39.9956
29.8822
30.0029
29.8798
29.8592
29.8448
29.8366
29.8358
29.8323
29.8321
29.8304
29.8299
29.8291
29.8285
29.8282
29.8286
29.8297
29.8308
29.8321
29.8331
29.8344
29.8344
29.8368
29.8347
29.8436
29.837
29.8767
29.8139
30.0859
28.6194
39.9563
29.8504
29.9767
29.849
29.8351
29.816
29.8106
29.8087
29.8062
29.8057
29.8044
29.8039
29.8032
29.8028
29.8027
29.8033
29.8043
29.8054
29.8065
29.8073
29.8086
29.8084
29.8114
29.8087
29.8198
29.8108
29.8566
29.7883
30.0704
28.5972
39.9247
29.8245
29.9558
29.8241
29.8162
29.7927
29.7899
29.7868
29.7854
29.7847
29.7836
29.783
29.7825
29.7823
29.7822
29.7827
29.7837
29.7846
29.7857
29.7863
29.7878
29.7872
29.791
29.7877
29.8007
29.7893
29.8407
29.7674
30.0584
28.5791
39.8993
29.8033
29.9392
29.8039
29.8014
29.7739
29.7734
29.769
29.7686
29.7679
29.767
29.7665
29.766
29.7658
29.7657
29.7662
29.767
29.7678
29.7688
29.7693
29.7709
29.7703
29.7748
29.7706
29.7854
29.7718
29.8282
29.7504
30.0492
28.5644
39.8787
29.786
29.9259
29.7877
29.7899
29.7589
29.7603
29.7545
29.7549
29.7542
29.7537
29.7532
29.7528
29.7526
29.7525
29.7529
29.7536
29.7543
29.7553
29.7557
29.7575
29.7569
29.7619
29.7567
29.773
29.7574
29.8185
29.7366
30.0422
28.5525
39.8621
29.7717
29.9155
29.7747
29.7811
29.7467
29.7499
29.7428
29.7438
29.7429
29.7427
29.7424
29.7421
29.7419
29.7418
29.7421
29.7428
29.7434
29.7444
29.7448
29.7468
29.7459
29.7513
29.7453
29.7629
29.7455
29.8111
29.7254
30.037
28.5429
39.8486
29.7599
29.9072
29.7641
29.7741
29.7368
29.7417
29.7334
29.7351
29.7337
29.7338
29.7335
29.7334
29.7333
29.7333
29.7335
29.7342
29.7348
29.7358
29.7361
29.7382
29.7369
29.7428
29.7358
29.7547
29.7356
29.8057
29.7162
30.0332
28.5351
39.8378
29.7501
29.9007
29.7551
29.7685
29.7289
29.7353
29.7258
29.7281
29.7265
29.7267
29.7264
29.7264
29.7263
29.7264
29.7267
29.7273
29.7279
29.7288
29.7291
29.7312
29.7296
29.7358
29.7279
29.7481
29.7272
29.8013
29.7088
30.0305
28.5288
39.8291
29.742
29.8956
29.7475
29.7642
29.7224
29.7303
29.7197
29.7227
29.7207
29.7211
29.7207
29.7208
29.7207
29.7209
29.7212
29.7218
29.7223
29.7233
29.7234
29.7255
29.7235
29.7302
29.7214
29.7429
29.7204
29.7975
29.7028
30.0287
28.5237
39.822
29.7353
29.8916
29.7413
29.7608
29.7172
29.7264
29.7147
29.7183
29.716
29.7167
29.7162
29.7163
29.7163
29.7165
29.7168
29.7174
29.7178
29.7187
29.7187
29.7209
29.7185
29.7256
29.716
29.7387
29.7148
29.7946
29.6979
30.0275
28.5195
39.8161
29.7296
29.8884
29.7362
29.758
29.713
29.7234
29.7106
29.7149
29.7123
29.7131
29.7126
29.7128
29.7128
29.7129
29.7132
29.7138
29.7142
29.715
29.7149
29.7171
29.7144
29.7219
29.7116
29.7355
29.7102
29.7924
29.694
30.0268
28.5162
39.8114
29.7249
29.8858
29.732
29.7559
29.7096
29.7211
29.7073
29.7122
29.7093
29.7103
29.7098
29.71
29.7099
29.7101
29.7104
29.7109
29.7112
29.712
29.7118
29.714
29.711
29.7189
29.7079
29.7329
29.7064
29.7909
29.6909
30.0265
28.5136
39.8076
29.721
29.8837
29.7285
29.7543
29.7068
29.7194
29.7047
29.7101
29.7069
29.7081
29.7075
29.7077
29.7077
29.7078
29.7081
29.7085
29.7088
29.7096
29.7092
29.7115
29.7083
29.7165
29.705
29.7309
29.7033
29.7898
29.6883
30.0265
28.5114
39.8046
29.7176
29.8819
29.7256
29.7531
29.7046
29.7181
29.7025
29.7085
29.7049
29.7063
29.7056
29.7059
29.7059
29.706
29.7062
29.7066
29.7068
29.7076
29.7071
29.7096
29.7059
29.7147
29.7025
29.7294
29.7007
29.7891
29.6862
30.0267
28.5097
39.8021
29.7148
29.8803
29.7232
29.7521
29.7027
29.717
29.7007
29.7071
29.7033
29.7049
29.7042
29.7045
29.7044
29.7046
29.7048
29.7051
29.7053
29.7061
29.7054
29.7079
29.704
29.7131
29.7004
29.7282
29.6986
29.7887
29.6845
30.0271
28.5084
39.8
29.7124
29.8791
29.7211
29.7515
29.7013
29.7163
29.6992
29.7062
29.702
29.7038
29.703
29.7033
29.7033
29.7034
29.7036
29.7039
29.704
29.7048
29.704
29.7066
29.7024
29.7119
29.6987
29.7273
29.6969
29.7884
29.6831
30.0276
28.5073
39.7983
29.7104
29.8781
29.7194
29.7511
29.7
29.7158
29.698
29.7054
29.7009
29.7029
29.702
29.7024
29.7023
29.7024
29.7026
29.7029
29.703
29.7037
29.7028
29.7055
29.701
29.7109
29.6972
29.7269
29.6955
29.7885
29.682
30.0282
28.5064
39.797
29.7087
29.8773
29.718
29.7509
29.6989
29.7155
29.697
29.7048
29.7
29.7021
29.7012
29.7016
29.7015
29.7017
29.7018
29.7021
29.7021
29.7028
29.7018
29.7047
29.6998
29.7102
29.6959
29.7266
29.6944
29.7887
29.6811
30.0289
28.5058
39.7958
29.7073
29.8767
29.7168
29.7508
29.698
29.7153
29.6962
29.7044
29.6992
29.7015
29.7005
29.701
29.7008
29.701
29.7011
29.7014
29.7013
29.7021
29.701
29.7039
29.6988
29.7096
29.6949
29.7264
29.6934
29.7889
29.6804
30.0296
28.5052
39.7949
29.706
29.8762
29.7158
29.7508
29.6972
29.7152
29.6955
29.7041
29.6985
29.701
29.6999
29.7005
29.7003
29.7005
29.7005
29.7008
29.7007
29.7015
29.7003
29.7034
29.6979
29.7092
29.694
29.7262
29.6927
29.7892
29.6799
30.0303
28.5048
39.7942
29.7049
29.8758
29.715
29.7509
29.6965
29.7152
29.695
29.7038
29.698
29.7006
29.6994
29.7
29.6998
29.7
29.7001
29.7003
29.7002
29.701
29.6997
29.7029
29.6971
29.7088
29.6932
29.7262
29.692
29.7895
29.6794
30.031
28.5045
39.7935
29.704
29.8754
29.7143
29.7511
29.696
29.7153
29.6945
29.7037
29.6975
29.7003
29.699
29.6996
29.6994
29.6996
29.6997
29.6999
29.6997
29.7006
29.6991
29.7025
29.6964
29.7086
29.6926
29.7262
29.6915
29.7898
29.679
30.0317
28.5042
39.793
29.7032
29.8752
29.7137
29.7513
29.6956
29.7153
29.6941
29.7036
29.697
29.7
29.6986
29.6993
29.6991
29.6993
29.6993
29.6996
29.6993
29.7002
29.6986
29.7021
29.6958
29.7084
29.6921
29.7262
29.6911
29.7901
29.6787
30.0323
28.504
39.7926
29.7025
29.875
29.7132
29.7515
29.6952
29.7154
29.6938
29.7036
29.6967
29.6998
29.6983
29.699
29.6988
29.699
29.699
29.6992
29.699
29.6999
29.6981
29.7018
29.6952
29.7083
29.6916
29.7263
29.6908
29.7904
29.6785
30.033
28.5039
39.7923
29.7019
29.8749
29.7127
29.7517
29.6948
29.7156
29.6935
29.7036
29.6963
29.6997
29.698
29.6988
29.6985
29.6987
29.6987
29.6989
29.6986
29.6996
29.6977
29.7016
29.6947
29.7083
29.6913
29.7264
29.6905
29.7908
29.6783
30.0335
28.5038
39.792
29.7014
29.8748
29.7124
29.752
29.6946
29.7157
29.6932
29.7037
29.696
29.6996
29.6977
29.6986
29.6983
29.6985
29.6985
29.6987
29.6984
29.6993
29.6974
29.7014
29.6943
29.7084
29.691
29.7265
29.6903
29.791
29.6782
30.0341
28.5037
39.7918
29.7009
29.8747
29.712
29.7521
29.6943
29.7158
29.693
29.7037
29.6958
29.6994
29.6975
29.6984
29.6981
29.6983
29.6982
29.6985
29.6981
29.6991
29.697
29.7013
29.6939
29.7084
29.6908
29.7267
29.6901
29.7913
29.6781
30.0346
28.5036
39.7916
29.7005
29.8747
29.7118
29.7523
29.6941
29.716
29.6928
29.7038
29.6955
29.6993
29.6973
29.6983
29.6979
29.6981
29.698
29.6983
29.6979
29.6989
29.6967
29.7012
29.6936
29.7085
29.6906
29.7268
29.6899
29.7916
29.678
30.035
28.5036
39.7915
29.7002
29.8746
29.7115
29.7525
29.694
29.7162
29.6926
29.7039
29.6953
29.6993
29.6971
29.6982
29.6977
29.698
29.6979
29.6981
29.6976
29.6988
29.6965
29.7011
29.6933
29.7086
29.6904
29.727
29.6897
29.7918
29.6779
30.0355
28.5036
39.7913
29.6999
29.8746
29.7113
29.7526
29.6938
29.7163
29.6924
29.7041
29.6951
29.6993
29.6969
29.6981
29.6976
29.6978
29.6977
29.698
29.6975
29.6987
29.6962
29.7011
29.693
29.7087
29.6903
29.7272
29.6896
29.792
29.6779
30.0358
28.5035
39.7912
29.6996
29.8745
29.7112
29.7528
29.6937
29.7164
29.6923
29.7042
29.6949
29.6993
29.6968
29.698
29.6974
29.6977
29.6976
29.6979
29.6973
29.6986
29.696
29.7011
29.6928
29.7088
29.6902
29.7273
29.6895
29.7922
29.6779
30.0362
28.5035
39.7912
29.6994
29.8745
29.711
29.7529
29.6936
29.7166
29.6922
29.7043
29.6947
29.6993
29.6967
29.6979
29.6973
29.6976
29.6975
29.6978
29.6972
29.6985
29.6958
29.7011
29.6927
29.709
29.6901
29.7274
29.6894
29.7924
29.6778
30.0365
28.5035
39.7911
29.6992
29.8745
29.7109
29.753
29.6935
29.7167
29.6921
29.7044
29.6946
29.6993
29.6965
29.6978
29.6972
29.6975
29.6974
29.6977
29.697
29.6985
29.6956
29.7011
29.6925
29.7091
29.69
29.7275
29.6893
29.7926
29.6778
30.0368
28.5035
39.791
29.699
29.8744
29.7108
29.7531
29.6934
29.7168
29.692
29.7045
29.6944
29.6993
29.6964
29.6978
29.6971
29.6975
29.6973
29.6976
29.6969
29.6984
29.6955
29.7012
29.6924
29.7092
29.69
29.7277
29.6893
29.7927
29.6778
30.037
28.5035
39.791
29.6989
29.8744
29.7107
29.7532
29.6934
29.717
29.692
29.7047
29.6943
29.6994
29.6963
29.6978
29.6971
29.6974
29.6972
29.6976
29.6968
29.6984
29.6953
29.7012
29.6923
29.7093
29.6899
29.7278
29.6892
29.7929
29.6778
30.0372
28.5035
39.7909
29.6988
29.8744
29.7106
29.7532
29.6933
29.7171
29.6919
29.7048
29.6942
29.6994
29.6962
29.6978
29.697
29.6974
29.6971
29.6975
29.6967
29.6984
29.6952
29.7013
29.6922
29.7094
29.6899
29.7278
29.6891
29.793
29.6778
30.0374
28.5035
39.7909
29.6986
29.8743
29.7105
29.7533
29.6933
29.7172
29.6919
29.7049
29.6941
29.6995
29.6962
29.6978
29.6969
29.6973
29.697
29.6975
29.6966
29.6984
29.6951
29.7013
29.6921
29.7094
29.6898
29.7279
29.6891
29.7931
29.6778
30.0376
28.5035
39.7909
29.6985
29.8743
29.7105
29.7533
29.6932
29.7172
29.6918
29.705
29.694
29.6995
29.6961
29.6977
29.6969
29.6973
29.697
29.6975
29.6965
29.6984
29.695
29.7014
29.692
29.7095
29.6898
29.728
29.6891
29.7932
29.6778
30.0378
28.5036
39.7909
29.6985
29.8743
29.7104
29.7533
29.6932
29.7173
29.6918
29.705
29.6939
29.6996
29.696
29.6977
29.6968
29.6973
29.6969
29.6974
29.6965
29.6984
29.6949
29.7014
29.6919
29.7096
29.6898
29.728
29.689
29.7933
29.6778
30.0379
28.5036
39.7909
29.6984
29.8743
29.7104
29.7534
29.6932
29.7173
29.6918
29.7051
29.6938
29.6996
29.6959
29.6977
29.6968
29.6973
29.6969
29.6974
29.6964
29.6984
29.6948
29.7015
29.6919
29.7096
29.6898
29.7281
29.689
29.7933
29.6778
30.038
28.5036
39.7908
29.6983
29.8743
29.7103
29.7534
29.6931
29.7174
29.6917
29.7052
29.6937
29.6996
29.6959
29.6977
29.6967
29.6973
29.6969
29.6974
29.6964
29.6984
29.6947
29.7015
29.6919
29.7097
29.6898
29.7281
29.689
29.7934
29.6778
30.0381
28.5036
39.7908
29.6983
29.8742
29.7103
29.7534
29.6931
29.7174
29.6917
29.7052
29.6937
29.6997
29.6958
29.6977
29.6967
29.6973
29.6968
29.6974
29.6963
29.6984
29.6947
29.7015
29.6918
29.7097
29.6898
29.7281
29.689
29.7934
29.6778
30.0382
28.5036
39.7908
29.6982
29.8742
29.7102
29.7533
29.6931
29.7174
29.6917
29.7052
29.6937
29.6997
29.6958
29.6977
29.6967
29.6973
29.6968
29.6974
29.6963
29.6984
29.6946
29.7016
29.6918
29.7097
29.6898
29.7282
29.6889
29.7935
29.6778
30.0383
28.5036
39.7908
29.6982
29.8741
29.7102
29.7533
29.6931
29.7174
29.6917
29.7052
29.6936
29.6997
29.6958
29.6977
29.6967
29.6973
29.6968
29.6974
29.6963
29.6984
29.6946
29.7016
29.6918
29.7097
29.6897
29.7282
29.6889
29.7935
29.6778
30.0383
28.5036
39.7908
29.6982
29.8741
29.7102
29.7532
29.6931
29.7173
29.6917
29.7052
29.6936
29.6997
29.6958
29.6977
29.6967
29.6972
29.6968
29.6974
29.6962
29.6984
29.6946
29.7016
29.6918
29.7097
29.6897
29.7281
29.6889
29.7935
29.6778
30.0383
28.5036
39.7908
29.6982
29.874
29.7102
29.7531
29.6931
29.7173
29.6917
29.7052
29.6936
29.6997
29.6958
29.6977
29.6966
29.6972
29.6968
29.6974
29.6962
29.6984
29.6946
29.7015
29.6918
29.7097
29.6897
29.7281
29.6889
29.7934
29.6778
30.0383
28.5036
39.7908
29.6982
29.8738
29.7101
29.753
29.6931
29.7172
29.6917
29.7051
29.6936
29.6997
29.6958
29.6977
29.6966
29.6972
29.6968
29.6974
29.6962
29.6984
29.6946
29.7015
29.6918
29.7096
29.6897
29.728
29.6889
29.7934
29.6778
30.0383
28.5036
39.7908
29.6982
29.8737
29.7101
29.7528
29.6931
29.717
29.6916
29.705
29.6937
29.6996
29.6958
29.6977
29.6966
29.6972
29.6968
29.6974
29.6962
29.6984
29.6946
29.7015
29.6918
29.7095
29.6897
29.728
29.6889
29.7933
29.6778
30.0382
28.5036
39.7908
29.6982
29.8735
29.7101
29.7526
29.6931
29.7169
29.6917
29.7049
29.6937
29.6996
29.6958
29.6977
29.6967
29.6972
29.6968
29.6974
29.6963
29.6983
29.6946
29.7014
29.6918
29.7094
29.6897
29.7279
29.6889
29.7932
29.6778
30.0381
28.5036
39.7908
29.6983
29.8733
29.7101
29.7523
29.6931
29.7167
29.6917
29.7048
29.6938
29.6995
29.6959
29.6977
29.6967
29.6972
29.6968
29.6974
29.6963
29.6983
29.6947
29.7013
29.6918
29.7093
29.6897
29.7277
29.6889
29.793
29.6778
30.038
28.5036
39.7908
29.6983
29.873
29.7101
29.752
29.6931
29.7165
29.6917
29.7046
29.6939
29.6994
29.6959
29.6977
29.6967
29.6973
29.6968
29.6974
29.6963
29.6983
29.6948
29.7012
29.6918
29.7092
29.6897
29.7276
29.6889
29.7929
29.6778
30.0379
28.5036
29.6931
29.7162
29.6917
29.7044
29.694
29.6993
29.696
29.6977
29.6967
29.6973
29.6968
29.6973
29.6964
29.6982
29.6949
29.7012
29.6919
29.709
29.6897
29.7275
29.689
29.7927
29.6778
30.0377
28.5036
29.7161
29.6917
29.7043
29.6941
29.6993
29.696
29.6977
29.6968
29.6973
29.6968
29.6974
29.6964
29.6982
29.6949
29.701
29.692
29.7089
29.6897
29.7273
29.689
29.7926
29.6778
30.0376
28.5036
29.704
29.6943
29.6991
29.6962
29.6977
29.6968
29.6973
29.6969
29.6973
29.6965
29.6981
29.695
29.701
29.692
29.7089
29.6897
29.7273
29.689
29.7925
29.6778
30.0374
28.5036
29.6969
29.6974
29.6965
29.6981
29.6952
29.7009
29.6921
29.7087
29.6897
29.7272
29.6891
29.7924
29.6778
30.0373
28.5036
29.6974
29.6967
29.6981
29.6953
29.7009
29.6922
29.7088
29.6898
29.7273
29.6891
29.7924
29.6778
30.0371
28.5036
29.6968
29.6981
29.6954
29.7008
29.6923
29.7087
29.6898
29.7272
29.6892
29.7923
29.6778
30.0369
28.5036
29.6981
29.6956
29.7007
29.6924
29.7087
29.6899
29.7272
29.6892
29.7922
29.6778
30.0367
28.5036
29.6925
29.7086
29.6899
29.7271
29.6893
29.7921
29.6778
30.0364
28.5037
64.7066
80.4341
52.5879
40.7702
32.7805
27.0981
23.2733
20.6672
18.7166
17.0796
15.592
14.2043
12.9461
11.932
11.4315
11.5373
12.161
13.0487
13.9976
14.9395
15.8516
16.7563
17.6728
18.6977
19.8714
21.4077
23.438
26.7607
31.4356
50.7736
46.9684
67.4771
44.9762
31.4867
22.9593
17.8595
15.0146
13.4261
12.4684
11.8326
11.3818
11.0543
10.8201
10.6705
10.5868
10.5506
10.5558
10.5957
10.6639
10.7563
10.8788
11.0256
11.2431
11.4759
11.9531
12.3868
14.0075
15.8447
20.9846
25.3447
47.8066
57.1634
37.1851
24.5667
17.7278
14.2585
12.5768
11.714
11.2271
10.9247
10.7282
10.5981
10.5121
10.4571
10.4268
10.4201
10.4372
10.4742
10.5276
10.5988
10.6872
10.8056
10.9455
11.1526
11.4232
11.8945
13.0294
15.019
18.0811
21.1568
48.2097
43.216
28.2383
19.1006
14.6503
12.606
11.6685
11.1889
10.9089
10.7285
10.6075
10.5249
10.4695
10.4345
10.4136
10.4054
10.4092
10.4241
10.4501
10.4892
10.5431
10.6139
10.7123
10.8343
11.0758
11.4145
12.7097
14.2749
17.0219
20.0358
48.064
31.5274
21.635
15.9969
13.2048
11.9184
11.3095
10.9732
10.7689
10.6283
10.5299
10.4594
10.4095
10.3754
10.3544
10.3457
10.3483
10.3602
10.3807
10.4107
10.4514
10.5052
10.5764
10.6758
10.8768
11.2474
12.5342
13.8197
16.1666
19.2112
43.9585
24.8801
17.9664
14.4377
12.4419
11.5095
11.0535
10.7983
10.6415
10.5301
10.4507
10.3928
10.3516
10.3232
10.3058
10.2974
10.2972
10.304
10.3175
10.3381
10.3668
10.403
10.4592
10.5314
10.7391
11.1145
12.5307
13.213
15.3264
18.4647
39.2527
21.3267
15.9523
13.5709
11.943
11.204
10.8365
10.6396
10.5201
10.4334
10.3705
10.3232
10.2886
10.264
10.2484
10.2404
10.2391
10.2435
10.2533
10.2684
10.2898
10.3159
10.3608
10.424
10.6336
11.0595
12.5028
12.8341
14.7858
17.8162
36.5123
19.027
14.6751
13.0512
11.5996
10.9687
10.6505
10.4971
10.4061
10.3403
10.2917
10.2542
10.2264
10.2063
10.1932
10.1861
10.184
10.1862
10.1926
10.2027
10.2179
10.2362
10.2748
10.3315
10.5562
11.0209
12.4035
12.5011
14.3116
17.4174
34.9299
17.2273
13.6772
12.7411
11.3722
10.7929
10.4971
10.3744
10.3041
10.2549
10.2179
10.1888
10.1667
10.1503
10.1394
10.1331
10.1308
10.1317
10.1359
10.1427
10.1536
10.167
10.202
10.2582
10.4988
10.9974
12.124
12.2514
13.9412
17.1792
33.8841
15.9294
12.7885
12.5383
11.2172
10.6596
10.3729
10.2714
10.2147
10.1784
10.1507
10.1285
10.1113
10.0984
10.0895
10.0842
10.0818
10.0819
10.0845
10.0887
10.0968
10.1068
10.1406
10.1983
10.4566
10.9311
11.8639
12.067
13.6371
17.0656
33.1416
15.0889
12.1305
12.3547
11.1092
10.5611
10.2755
10.1866
10.1389
10.1118
10.0912
10.0744
10.0613
10.0511
10.044
10.0396
10.0374
10.037
10.0386
10.0412
10.0474
10.0557
10.0893
10.1513
10.427
10.774
11.636
11.9323
13.3886
17.0206
32.5944
14.5234
11.6892
12.1391
11.0166
10.4868
10.2002
10.1183
10.0756
10.055
10.0395
10.027
10.017
10.0091
10.0035
9.99991
9.99796
9.99737
9.99829
9.9998
10.0051
10.0124
10.0473
10.1147
10.4067
10.6391
11.4397
11.8359
13.1842
17.0287
32.182
14.12
11.3961
11.8783
10.8807
10.4232
10.1397
10.0625
10.0234
10.0072
9.99537
9.98602
9.97849
9.97244
9.96801
9.96513
9.96347
9.96284
9.96332
9.96433
9.96899
9.97585
10.0125
10.0854
10.3947
10.5284
11.2752
11.7708
13.014
17.0885
31.8665
13.8064
11.191
11.6217
10.6979
10.3744
10.0942
10.0184
9.98073
9.96777
9.95818
9.95126
9.94548
9.94082
9.93734
9.93503
9.93367
9.933
9.93339
9.93403
9.93889
9.94612
9.98403
10.0644
10.3861
10.4395
11.1416
11.723
12.8642
17.1919
31.622
13.5464
11.039
11.4282
10.5294
10.3442
10.0611
9.98285
9.94518
9.93446
9.92719
9.92203
9.91759
9.91395
9.91118
9.90937
9.90827
9.90778
9.90819
9.90899
9.91338
9.92062
9.96031
10.0491
10.3389
10.3656
11.0359
11.6884
12.7297
17.3258
31.4307
13.3345
10.9293
11.2837
10.3981
10.3262
10.0387
9.95732
9.91722
9.90772
9.90112
9.8975
9.89425
9.8916
9.88952
9.88814
9.88735
9.88699
9.8874
9.88794
9.89257
9.90096
9.94347
10.0401
10.2796
10.3052
10.9482
11.6614
12.6096
17.4837
31.2801
13.1601
10.8522
11.1707
10.298
10.3173
10.0234
9.93721
9.89468
9.8858
9.88023
9.87731
9.87492
9.87291
9.87133
9.87032
9.86974
9.86955
9.86979
9.87068
9.8751
9.88404
9.92969
10.0281
10.2273
10.2595
10.8733
11.6416
12.5031
17.6544
31.1609
13.0149
10.7971
11.0804
10.2222
10.2617
10.0087
9.92187
9.8785
9.86946
9.86315
9.86082
9.8591
9.85762
9.85644
9.85572
9.85535
9.85529
9.85551
9.85636
9.86145
9.87302
9.9188
9.99833
10.1784
10.2248
10.8096
11.6277
12.409
17.8294
31.0663
12.8946
10.7589
11.0066
10.1659
10.2068
9.99943
9.90872
9.86389
9.85603
9.84994
9.84805
9.84629
9.84503
9.84409
9.84356
9.84328
9.84331
9.84388
9.84512
9.85064
9.86162
9.90892
9.97121
10.137
10.1997
10.7553
11.6194
12.3271
18.0077
30.9909
12.7944
10.7321
10.9468
10.1233
10.1604
9.97078
9.89982
9.8526
9.84443
9.83924
9.83761
9.83607
9.83502
9.83428
9.83387
9.83387
9.83408
9.8348
9.83618
9.84073
9.85313
9.90296
9.94712
10.1015
10.1815
10.7088
11.6159
12.2557
18.1891
30.9307
12.7098
10.7139
10.8974
10.0911
10.1223
9.94287
9.8931
9.84368
9.83541
9.82984
9.82884
9.82793
9.82727
9.8266
9.82633
9.82639
9.82652
9.82682
9.82791
9.83279
9.8463
9.89855
9.92724
10.0715
10.1686
10.6677
11.6154
12.194
18.3687
30.8826
12.6366
10.7014
10.856
10.0665
10.0907
9.91916
9.88907
9.83756
9.82852
9.82276
9.82194
9.82108
9.8205
9.82011
9.81992
9.81992
9.82005
9.82045
9.82171
9.82674
9.8419
9.89119
9.91096
10.046
10.1601
10.6314
11.617
12.1406
18.5403
30.844
12.573
10.6929
10.8217
10.048
10.0651
9.89967
9.88673
9.83283
9.82324
9.8171
9.81636
9.81555
9.81518
9.8149
9.81476
9.81473
9.81484
9.81524
9.81669
9.82197
9.83845
9.88201
9.89801
10.0245
10.1553
10.5998
11.6195
12.0934
18.7044
30.813
12.5175
10.686
10.7941
10.0343
10.0446
9.88416
9.88073
9.82979
9.81924
9.81268
9.81197
9.81124
9.81089
9.81062
9.81052
9.81057
9.81076
9.81115
9.81279
9.81833
9.83634
9.8732
9.88807
10.0063
10.1534
10.5728
11.6225
12.0516
18.8607
30.7881
12.4686
10.6801
10.7715
10.0246
10.0275
9.87188
9.87312
9.82762
9.81631
9.80931
9.80857
9.80783
9.80755
9.80732
9.80726
9.80731
9.80752
9.80792
9.80978
9.81575
9.83327
9.86515
9.88054
9.99052
10.1534
10.5491
11.6253
12.0144
19.0072
30.7679
12.4263
10.6753
10.7516
10.0171
10.0143
9.86242
9.86593
9.82592
9.81424
9.80677
9.80599
9.80524
9.80498
9.80476
9.80472
9.8048
9.80506
9.80551
9.80765
9.81392
9.82972
9.85796
9.875
9.97757
10.1545
10.5275
11.6287
11.9829
19.1454
30.7517
12.3893
10.6714
10.7351
10.0116
10.0039
9.85517
9.85992
9.82306
9.81309
9.80489
9.8041
9.80332
9.80309
9.8029
9.80289
9.80299
9.8033
9.80379
9.80617
9.81281
9.82642
9.85185
9.87118
9.96673
10.1574
10.5086
11.6322
11.9547
19.2772
30.7386
12.3564
10.6678
10.7212
10.0084
9.99599
9.84988
9.85453
9.81979
9.81233
9.80355
9.80277
9.80195
9.80176
9.80159
9.80161
9.80172
9.80205
9.80253
9.80514
9.81199
9.82331
9.84638
9.86842
9.95805
10.1624
10.4921
11.6357
11.9287
19.3961
30.728
12.3278
10.6643
10.7075
10.0062
9.98981
9.84573
9.85037
9.81693
9.81229
9.80263
9.80186
9.80099
9.80084
9.80068
9.80071
9.80082
9.80115
9.80163
9.80451
9.81157
9.82082
9.84174
9.86688
9.95034
10.168
10.4778
11.6394
11.9053
19.5095
30.7195
12.3027
10.6612
10.6945
10.0048
9.98513
9.84283
9.84672
9.81428
9.81209
9.80196
9.80126
9.80033
9.8002
9.80006
9.8001
9.8002
9.80056
9.80101
9.80408
9.81052
9.8184
9.83782
9.86616
9.94418
10.1723
10.4643
11.643
11.8848
19.6177
30.7127
12.2805
10.6587
10.6836
10.0046
9.98105
9.84052
9.84377
9.81215
9.81144
9.8016
9.80088
9.79986
9.79979
9.79965
9.7997
9.79978
9.8001
9.80047
9.80375
9.8094
9.81672
9.83448
9.86594
9.93878
10.1761
10.4519
11.6465
11.8669
19.72
30.7072
12.2606
10.6569
10.6743
10.0049
9.97755
9.83895
9.8413
9.81032
9.81053
9.80136
9.8006
9.79955
9.79951
9.79937
9.7994
9.79945
9.79973
9.80012
9.80367
9.80824
9.8153
9.83166
9.86625
9.93401
10.1802
10.4414
11.65
11.8508
19.8164
30.7028
12.2427
10.6554
10.6667
10.0054
9.97487
9.83785
9.83927
9.80885
9.80959
9.80122
9.80043
9.79931
9.79929
9.79916
9.7992
9.79922
9.79951
9.79987
9.8034
9.80712
9.81427
9.82927
9.86689
9.92997
10.184
10.4322
11.6534
11.8366
19.9066
30.6993
12.2268
10.654
10.66
10.0059
9.97239
9.83706
9.83768
9.80769
9.80879
9.80117
9.80036
9.79914
9.79915
9.79902
9.79906
9.79907
9.79935
9.79973
9.80311
9.80618
9.81358
9.82725
9.86785
9.9262
10.1878
10.4243
11.6564
11.8238
19.9909
30.6965
12.2127
10.6525
10.6533
10.0064
9.97046
9.83675
9.83626
9.80678
9.80796
9.80095
9.80032
9.79904
9.79907
9.79894
9.79898
9.79897
9.79926
9.79963
9.80274
9.80528
9.81304
9.82556
9.86887
9.92327
10.1908
10.4162
11.6598
11.8129
20.0697
30.6943
12.2001
10.651
10.6469
10.0066
9.96889
9.83652
9.83512
9.80608
9.80742
9.80071
9.80038
9.79896
9.79902
9.7989
9.79894
9.79892
9.79923
9.79962
9.80249
9.80456
9.81289
9.82395
9.86994
9.92074
10.1935
10.4084
11.6629
11.8035
20.1407
30.6925
12.1891
10.6497
10.6408
10.0068
9.96758
9.83665
9.83426
9.80561
9.80683
9.80043
9.80041
9.79893
9.79901
9.79889
9.79894
9.7989
9.79921
9.7996
9.80221
9.80393
9.81273
9.82279
9.87119
9.91869
10.1963
10.4011
11.6659
11.7955
20.2001
30.6909
12.1794
10.6487
10.6352
10.0065
9.96631
9.8369
9.83361
9.80524
9.80645
9.80019
9.80035
9.79888
9.79901
9.79889
9.79895
9.7989
9.79927
9.7996
9.80205
9.80336
9.81279
9.82173
9.87256
9.91646
10.198
10.3941
11.6689
11.7884
20.2341
30.6896
12.1716
10.6476
10.6298
10.006
9.96532
9.83741
9.83329
9.80502
9.8061
9.79995
9.80026
9.79888
9.79901
9.7989
9.79896
9.7989
9.79927
9.79945
9.80182
9.80289
9.81287
9.82109
9.87437
9.91482
10.2003
10.3879
11.6715
11.782
20.2674
30.6886
12.1647
10.6464
10.6251
10.0052
9.96419
9.83797
9.8331
9.80485
9.80587
9.79974
9.80013
9.79884
9.799
9.79889
9.79895
9.79887
9.79929
9.79932
9.8017
9.80246
9.81309
9.82053
9.87612
9.91299
10.2024
10.3828
11.6734
11.7755
20.2975
30.6877
12.1587
10.6455
10.6208
10.0043
9.96309
9.83857
9.83303
9.80476
9.8057
9.79955
9.80001
9.7988
9.79899
9.79887
9.79893
9.79884
9.79927
9.79914
9.80156
9.80214
9.81336
9.82013
9.87781
9.91118
10.2037
10.3776
11.6758
11.7703
20.325
30.687
12.1532
10.6448
10.617
10.0033
9.96204
9.83917
9.83302
9.80469
9.80558
9.79939
9.79988
9.79876
9.79897
9.79884
9.79891
9.7988
9.79922
9.79898
9.80151
9.80184
9.81368
9.81981
9.87944
9.90942
10.2047
10.3729
11.6778
11.7656
20.35
30.6864
12.1486
10.6445
10.6133
10.0021
9.96115
9.83979
9.83307
9.80467
9.80549
9.79923
9.79975
9.79871
9.79893
9.7988
9.79888
9.79875
9.79916
9.79881
9.80146
9.8016
9.81402
9.81955
9.88101
9.90778
10.2053
10.3684
11.6795
11.7615
20.3726
30.6859
12.1444
10.644
10.61
10.0009
9.96039
9.84035
9.83314
9.80469
9.80543
9.79908
9.79962
9.79863
9.79888
9.79874
9.79883
9.79869
9.79907
9.79865
9.80144
9.80139
9.8144
9.8193
9.88247
9.90621
10.2056
10.3644
11.681
11.7579
20.3931
30.6856
12.1406
10.6435
10.6072
9.99978
9.95976
9.84082
9.83326
9.80476
9.80543
9.79894
9.7995
9.79853
9.79881
9.79867
9.79876
9.79861
9.799
9.79848
9.80144
9.80124
9.81485
9.81908
9.88378
9.90479
10.2058
10.3606
11.6823
11.7546
20.4119
30.6852
12.1373
10.6431
10.6046
9.99864
9.95918
9.84115
9.83343
9.80488
9.80545
9.79882
9.7994
9.79843
9.79874
9.79859
9.79869
9.79853
9.79894
9.79833
9.80147
9.80111
9.81538
9.81886
9.88494
9.90342
10.2058
10.3572
11.6834
11.7516
20.4288
30.685
12.1343
10.6427
10.6022
9.99761
9.9587
9.84137
9.83359
9.80501
9.80549
9.79871