/*--------------------------------*- C++ -*----------------------------------*\
  =========                 |
  \\      /  F ield         | OpenFOAM: The Open Source CFD Toolbox
   \\    /   O peration     | Website:  https://openfoam.org
    \\  /    A nd           | Version:  10
     \\/     M anipulation  |
\*---------------------------------------------------------------------------*/
FoamFile
{
    format      ascii;
    class       volScalarField;
    location    "0.05";
    object      omega;
}
// * * * * * * * * * * * * * * * * * * * * * * * * * * * * * * * * * * * * * //

dimensions      [0 0 -1 0 0 0 0];

internalField   nonuniform List<scalar> 
116798
(
60.8365
61.6714
59.6106
56.5506
55.2094
54.962
55.0842
55.161
55.0688
54.8691
54.6533
54.4747
54.3812
54.3411
54.2824
54.1422
53.9461
53.7951
53.7402
53.7899
53.939
54.1843
54.5196
54.9581
55.4954
56.1666
56.872
57.7002
58.1114
56.8725
55.1836
44.3778
41.1266
39.6498
39.2711
39.2116
39.0771
38.7896
38.4055
37.9966
37.6078
37.2562
36.9489
36.696
36.5129
36.3985
36.347
36.3458
36.3867
36.4674
36.5882
36.7527
36.9608
37.2222
37.5218
37.8883
38.217
38.5779
38.4787
36.6062
58.9149
44.7614
42.8352
41.8175
41.2771
40.6314
39.8376
39.0142
38.2715
37.6511
37.1528
36.7584
36.4483
36.2088
36.0394
35.9301
35.8749
35.8617
35.8831
35.9387
36.0292
36.1577
36.3198
36.5253
36.7464
37.0235
37.2264
37.4935
37.2073
35.6295
61.897
44.0054
43.4833
42.2931
41.0712
39.8031
38.6987
37.8144
37.1255
36.5887
36.1692
35.8402
35.58
35.3734
35.2208
35.1161
35.057
35.0371
35.0493
35.0909
35.1591
35.2568
35.3748
35.5266
35.6737
35.8757
35.9773
36.1785
35.7819
34.4344
60.0454
42.2196
41.8914
40.4793
39.1674
38.0405
37.1658
36.4878
35.9577
35.5387
35.2058
34.9396
34.7255
34.552
34.4227
34.3327
34.2799
34.258
34.2608
34.2861
34.3309
34.3984
34.4778
34.5855
34.6784
34.8251
34.8508
35.0099
34.6172
33.3534
54.9161
39.5328
39.011
38.0334
37.1411
36.3881
35.7862
35.303
34.9119
34.5949
34.3371
34.127
33.955
33.8129
33.7041
33.6277
33.5814
33.5597
33.5567
33.5706
33.5982
33.6436
33.6943
33.7713
33.8219
33.9332
33.9106
34.0431
33.6784
32.4473
50.3065
36.953
36.4496
36.0386
35.48
35.0208
34.616
34.2821
33.9998
33.7655
33.57
33.4078
33.2725
33.1586
33.0692
33.0063
32.9674
32.9474
32.9412
32.9474
32.963
32.9924
33.0228
33.0768
33.1001
33.186
33.1382
33.246
32.9317
31.7065
47.2618
35.007
34.6366
34.5626
34.1814
33.9191
33.6457
33.4216
33.2212
33.0518
32.9065
32.7835
32.6788
32.5892
32.5164
32.4656
32.4338
32.4163
32.4088
32.4103
32.4181
32.4367
32.4536
32.4922
32.4984
32.5667
32.506
32.594
32.3384
31.1055
45.2825
33.6555
33.3949
33.463
33.1782
33.0418
32.8536
32.7077
32.5666
32.4465
32.3399
32.2481
32.1683
32.0988
32.0405
32.0003
31.9748
31.9601
31.9525
31.9515
31.9545
31.9662
31.9743
32.0027
31.9983
32.0538
31.9884
32.0604
31.8675
30.618
43.928
32.7113
32.5287
32.633
32.4061
32.3477
32.2135
32.1219
32.0227
31.9389
31.8617
31.7941
31.7339
31.6806
31.6348
31.6033
31.5834
31.5716
31.5647
31.5626
31.563
31.5704
31.5733
31.5947
31.5844
31.6305
31.5667
31.6238
31.4936
30.2223
42.9591
32.0308
31.906
32.0005
31.8115
31.7999
31.7002
31.6452
31.5748
31.5174
31.4618
31.4125
31.3677
31.3272
31.2917
31.2675
31.2524
31.2431
31.2374
31.2351
31.2342
31.2391
31.239
31.2554
31.2425
31.2818
31.2224
31.2664
31.1952
29.9007
42.2444
31.5271
31.4476
31.5149
31.352
31.3671
31.2904
31.2595
31.2087
31.1699
31.13
31.0944
31.0612
31.0309
31.0036
30.9854
30.9742
30.9673
30.9628
30.9609
30.9595
30.963
30.9611
30.9744
30.9611
30.995
30.9421
30.9737
30.9566
29.6388
41.7055
31.1466
31.1063
31.1393
30.9966
31.024
30.9636
30.949
30.9114
30.8854
30.8565
30.831
30.8066
30.784
30.7634
30.7498
30.7418
30.7369
30.7337
30.7322
30.7309
30.7334
30.7311
30.7421
30.7302
30.7584
30.7135
30.734
30.7641
29.4253
41.2929
30.8538
30.8496
30.8464
30.7214
30.7515
30.7025
30.6989
30.671
30.6538
30.6326
30.6143
30.5963
30.5796
30.5641
30.5542
30.5486
30.5453
30.5431
30.5422
30.5411
30.5432
30.5411
30.5513
30.5408
30.5636
30.5278
30.5372
30.6101
29.2511
40.9727
30.6241
30.6475
30.6158
30.5075
30.5356
30.4939
30.4969
30.4766
30.4658
30.4501
30.4368
30.4234
30.411
30.3995
30.3924
30.3886
30.3865
30.3851
30.3846
30.384
30.3862
30.3855
30.3941
30.3851
30.4028
30.3768
30.3756
30.4863
29.1088
40.7217
30.443
30.4875
30.4338
30.3402
30.3646
30.3279
30.3336
30.3184
30.3126
30.3015
30.2921
30.2821
30.2728
30.2642
30.2591
30.2566
30.2554
30.2547
30.2548
30.2552
30.2579
30.2575
30.2646
30.2567
30.2707
30.2543
30.2431
30.3873
28.9928
40.5257
30.2991
30.3611
30.2893
30.2089
30.2283
30.1969
30.2025
30.1903
30.1875
30.1798
30.1736
30.1665
30.1598
30.1534
30.1497
30.1483
30.1479
30.148
30.1489
30.1499
30.1523
30.1525
30.157
30.1515
30.162
30.1548
30.1344
30.308
28.8981
40.3713
30.1839
30.2606
30.1743
30.1061
30.1194
30.0927
30.0981
30.0877
30.0863
30.0808
30.0767
30.0718
30.0671
30.0628
30.0604
30.0599
30.0602
30.061
30.0622
30.0634
30.0655
30.0651
30.0685
30.0656
30.0725
30.0744
30.0455
30.2445
28.8209
40.2485
30.0912
30.1804
30.0821
30.0255
30.0322
30.0096
30.0145
30.0061
30.0053
30.001
29.9981
29.9948
29.9917
29.9888
29.9875
29.9878
29.9886
29.9897
29.991
29.9921
29.9932
29.9935
29.9959
29.9954
29.9989
30.0099
29.9728
30.1938
28.7579
40.1507
30.0166
30.1163
30.008
29.9618
29.9626
29.9434
29.9472
29.9405
29.9404
29.937
29.9351
29.9328
29.9307
29.9287
29.9282
29.9288
29.9299
29.931
29.9319
29.9331
29.9341
29.9352
29.9363
29.938
29.9386
29.9581
29.9135
30.1535
28.7064
40.0725
29.9562
30.0649
29.9482
29.9114
29.9066
29.8911
29.8931
29.8876
29.8878
29.8854
29.8842
29.8825
29.881
29.8798
29.8797
29.8805
29.8815
29.8827
29.8838
29.8851
29.8859
29.8875
29.8872
29.8914
29.8894
29.9169
29.8651
30.1214
28.6644
40.0098
29.9072
30.0236
29.9
29.8716
29.8615
29.8495
29.8501
29.8454
29.8455
29.8436
29.8428
29.8416
29.8407
29.8399
29.8401
29.8411
29.8422
29.8435
29.8445
29.846
29.8463
29.8483
29.847
29.8537
29.8493
29.8841
29.8256
30.096
28.6302
39.9597
29.8674
29.9905
29.861
29.8402
29.825
29.8164
29.8155
29.8119
29.8117
29.81
29.8094
29.8086
29.808
29.8076
29.808
29.8091
29.8103
29.8116
29.8125
29.8138
29.8138
29.8163
29.8142
29.8235
29.8166
29.8581
29.7934
30.0761
28.6022
39.9194
29.8349
29.9638
29.8295
29.8155
29.7954
29.7899
29.7878
29.7852
29.7847
29.7834
29.7828
29.7821
29.7817
29.7816
29.7821
29.7832
29.7842
29.7854
29.7861
29.7876
29.7872
29.7904
29.7876
29.7992
29.7898
29.8377
29.7672
30.0605
28.5795
39.8871
29.8084
29.9425
29.804
29.7963
29.7716
29.7686
29.7653
29.7639
29.7632
29.762
29.7615
29.761
29.7607
29.7606
29.7611
29.7621
29.763
29.7641
29.7647
29.7663
29.7657
29.7696
29.7661
29.7797
29.7679
29.8216
29.7459
30.0483
28.561
39.8612
29.7868
29.9255
29.7833
29.7812
29.7524
29.7518
29.7471
29.7467
29.746
29.7451
29.7446
29.7441
29.7438
29.7438
29.7442
29.7451
29.7459
29.7469
29.7474
29.749
29.7484
29.7531
29.7487
29.7641
29.75
29.809
29.7285
30.0389
28.546
39.8402
29.7691
29.912
29.7668
29.7696
29.7369
29.7385
29.7323
29.7328
29.7319
29.7315
29.731
29.7306
29.7304
29.7303
29.7307
29.7314
29.7321
29.7331
29.7335
29.7354
29.7346
29.7399
29.7345
29.7516
29.7353
29.7991
29.7145
30.0319
28.5338
39.8231
29.7545
29.9013
29.7534
29.7607
29.7245
29.7279
29.7203
29.7214
29.7204
29.7203
29.7199
29.7196
29.7194
29.7194
29.7197
29.7203
29.721
29.722
29.7224
29.7244
29.7234
29.7292
29.7228
29.7413
29.7232
29.7916
29.703
30.0266
28.524
39.8094
29.7425
29.8929
29.7426
29.7535
29.7144
29.7195
29.7106
29.7125
29.7111
29.7112
29.7108
29.7107
29.7106
29.7106
29.7109
29.7115
29.7121
29.7132
29.7135
29.7156
29.7142
29.7205
29.7131
29.733
29.713
29.7863
29.6936
30.0228
28.516
39.7983
29.7325
29.8862
29.7334
29.7478
29.7063
29.713
29.7029
29.7054
29.7036
29.7039
29.7036
29.7036
29.7035
29.7036
29.7039
29.7045
29.7051
29.7061
29.7063
29.7085
29.7068
29.7134
29.705
29.7263
29.7045
29.7819
29.686
30.0201
28.5095
39.7894
29.7242
29.881
29.7256
29.7435
29.6997
29.7079
29.6966
29.6998
29.6977
29.6982
29.6978
29.6978
29.6978
29.6979
29.6982
29.6989
29.6994
29.7004
29.7005
29.7028
29.7006
29.7076
29.6984
29.721
29.6975
29.778
29.6799
30.0182
28.5043
39.7822
29.7173
29.877
29.7193
29.74
29.6943
29.704
29.6915
29.6954
29.6929
29.6937
29.6932
29.6933
29.6933
29.6934
29.6938
29.6943
29.6948
29.6958
29.6957
29.698
29.6955
29.7029
29.6929
29.7168
29.6917
29.775
29.6749
30.017
28.5001
39.7763
29.7116
29.8737
29.7141
29.7372
29.69
29.7009
29.6873
29.6919
29.6891
29.69
29.6895
29.6897
29.6897
29.6898
29.6901
29.6907
29.6911
29.692
29.6918
29.6941
29.6912
29.6992
29.6884
29.7135
29.687
29.7729
29.6709
30.0164
28.4967
39.7715
29.7068
29.8711
29.7097
29.7351
29.6865
29.6987
29.684
29.6892
29.686
29.6872
29.6866
29.6868
29.6867
29.6869
29.6872
29.6877
29.688
29.6889
29.6886
29.691
29.6878
29.6962
29.6846
29.7109
29.6831
29.7714
29.6677
30.0161
28.494
39.7676
29.7028
29.8689
29.7062
29.7334
29.6836
29.6969
29.6812
29.687
29.6836
29.6849
29.6842
29.6845
29.6844
29.6846
29.6849
29.6853
29.6856
29.6864
29.686
29.6885
29.6849
29.6937
29.6816
29.7089
29.6799
29.7703
29.6651
30.0161
28.4918
39.7644
29.6994
29.8671
29.7032
29.7322
29.6813
29.6956
29.679
29.6854
29.6815
29.6831
29.6823
29.6827
29.6826
29.6827
29.683
29.6834
29.6836
29.6844
29.6838
29.6864
29.6825
29.6918
29.6791
29.7073
29.6773
29.7696
29.663
30.0164
28.49
39.7619
29.6965
29.8655
29.7007
29.7313
29.6795
29.6945
29.6771
29.684
29.6799
29.6816
29.6808
29.6812
29.6811
29.6812
29.6814
29.6818
29.682
29.6828
29.6821
29.6848
29.6806
29.6903
29.677
29.7061
29.6752
29.7692
29.6612
30.0168
28.4886
39.7598
29.6941
29.8642
29.6986
29.7306
29.678
29.6937
29.6756
29.6831
29.6785
29.6805
29.6796
29.68
29.6799
29.6801
29.6802
29.6806
29.6807
29.6815
29.6806
29.6834
29.6789
29.689
29.6752
29.7053
29.6734
29.7689
29.6598
30.0173
28.4875
39.7581
29.6921
29.8632
29.6969
29.7302
29.6767
29.6933
29.6744
29.6823
29.6774
29.6795
29.6786
29.679
29.6789
29.6791
29.6792
29.6796
29.6796
29.6804
29.6794
29.6823
29.6775
29.688
29.6737
29.7048
29.672
29.769
29.6587
30.018
28.4866
39.7567
29.6903
29.8624
29.6954
29.73
29.6755
29.693
29.6734
29.6817
29.6765
29.6788
29.6777
29.6782
29.6781
29.6783
29.6784
29.6787
29.6787
29.6795
29.6784
29.6815
29.6762
29.6873
29.6724
29.7046
29.6708
29.7692
29.6578
30.0187
28.4859
39.7555
29.6888
29.8618
29.6942
29.7299
29.6746
29.6928
29.6726
29.6813
29.6757
29.6782
29.677
29.6776
29.6774
29.6776
29.6777
29.678
29.6779
29.6788
29.6775
29.6807
29.6752
29.6867
29.6713
29.7044
29.6699
29.7695
29.6571
30.0194
28.4854
39.7546
29.6875
29.8613
29.6932
29.73
29.6738
29.6927
29.6719
29.6809
29.675
29.6777
29.6764
29.6771
29.6769
29.6771
29.6771
29.6774
29.6773
29.6782
29.6768
29.6801
29.6743
29.6863
29.6703
29.7042
29.6691
29.7698
29.6565
30.0201
28.4849
39.7538
29.6864
29.8609
29.6923
29.7301
29.6731
29.6927
29.6713
29.6807
29.6744
29.6773
29.6759
29.6766
29.6764
29.6766
29.6766
29.6769
29.6768
29.6776
29.6761
29.6796
29.6735
29.6859
29.6696
29.7042
29.6684
29.7701
29.656
30.0209
28.4846
39.7532
29.6855
29.8606
29.6916
29.7303
29.6726
29.6928
29.6709
29.6805
29.6738
29.677
29.6755
29.6762
29.676
29.6762
29.6762
29.6765
29.6763
29.6772
29.6756
29.6792
29.6727
29.6857
29.6689
29.7042
29.6679
29.7705
29.6557
30.0216
28.4843
39.7527
29.6847
29.8603
29.691
29.7305
29.6721
29.6928
29.6705
29.6804
29.6734
29.6767
29.6751
29.6759
29.6756
29.6758
29.6758
29.6761
29.6758
29.6768
29.675
29.6789
29.672
29.6855
29.6684
29.7042
29.6675
29.7708
29.6554
30.0222
28.4841
39.7523
29.684
29.8602
29.6904
29.7307
29.6717
29.693
29.6701
29.6805
29.673
29.6765
29.6747
29.6756
29.6753
29.6755
29.6755
29.6758
29.6755
29.6765
29.6746
29.6786
29.6715
29.6854
29.668
29.7043
29.6672
29.7712
29.6551
30.0229
28.484
39.7519
29.6834
29.86
29.69
29.731
29.6714
29.6931
29.6698
29.6805
29.6727
29.6763
29.6744
29.6754
29.675
29.6753
29.6752
29.6755
29.6751
29.6762
29.6742
29.6784
29.671
29.6855
29.6676
29.7045
29.6669
29.7715
29.6549
30.0235
28.4838
39.7516
29.6828
29.8599
29.6896
29.7312
29.6711
29.6932
29.6695
29.6806
29.6724
29.6762
29.6742
29.6752
29.6748
29.675
29.675
29.6752
29.6748
29.6759
29.6738
29.6782
29.6705
29.6855
29.6673
29.7046
29.6666
29.7718
29.6548
30.024
28.4838
39.7514
29.6824
29.8599
29.6893
29.7314
29.6708
29.6934
29.6693
29.6806
29.6721
29.6761
29.6739
29.675
29.6746
29.6748
29.6747
29.675
29.6746
29.6757
29.6734
29.678
29.6701
29.6856
29.6671
29.7048
29.6664
29.7721
29.6547
30.0246
28.4837
39.7512
29.682
29.8598
29.689
29.7316
29.6706
29.6936
29.6691
29.6807
29.6718
29.676
29.6737
29.6748
29.6744
29.6746
29.6745
29.6748
29.6743
29.6755
29.6731
29.6779
29.6698
29.6857
29.6669
29.7049
29.6662
29.7723
29.6546
30.025
28.4836
39.7511
29.6816
29.8597
29.6888
29.7318
29.6705
29.6937
29.6689
29.6809
29.6716
29.6759
29.6735
29.6747
29.6742
29.6745
29.6743
29.6746
29.6741
29.6754
29.6728
29.6778
29.6695
29.6858
29.6667
29.7051
29.6661
29.7726
29.6545
30.0255
28.4836
39.751
29.6813
29.8597
29.6886
29.7319
29.6703
29.6939
29.6688
29.681
29.6714
29.6759
29.6733
29.6746
29.674
29.6743
29.6742
29.6745
29.6739
29.6753
29.6726
29.6778
29.6693
29.6859
29.6666
29.7053
29.6659
29.7728
29.6545
30.0259
28.4836
39.7509
29.6811
29.8597
29.6884
29.7321
29.6702
29.694
29.6686
29.6811
29.6712
29.6759
29.6732
29.6745
29.6739
29.6742
29.674
29.6744
29.6737
29.6752
29.6723
29.6779
29.6691
29.686
29.6665
29.7054
29.6658
29.773
29.6545
30.0262
28.4836
39.7508
29.6808
29.8596
29.6882
29.7322
29.6701
29.6942
29.6685
29.6813
29.671
29.6759
29.673
29.6744
29.6738
29.6741
29.6739
29.6743
29.6736
29.6751
29.6721
29.6779
29.6689
29.6861
29.6664
29.7055
29.6657
29.7732
29.6544
30.0265
28.4836
39.7507
29.6806
29.8596
29.6881
29.7323
29.67
29.6943
29.6684
29.6814
29.6708
29.6759
29.6729
29.6743
29.6737
29.674
29.6738
29.6742
29.6734
29.675
29.6719
29.6779
29.6687
29.6863
29.6663
29.7057
29.6656
29.7734
29.6544
30.0268
28.4836
39.7507
29.6805
29.8596
29.688
29.7324
29.6699
29.6945
29.6683
29.6815
29.6707
29.676
29.6728
29.6743
29.6736
29.6739
29.6737
29.6741
29.6733
29.675
29.6718
29.6779
29.6686
29.6864
29.6662
29.7058
29.6656
29.7736
29.6544
30.0271
28.4836
39.7506
29.6803
29.8595
29.6879
29.7325
29.6698
29.6946
29.6683
29.6816
29.6705
29.676
29.6727
29.6743
29.6735
29.6739
29.6736
29.674
29.6732
29.675
29.6716
29.678
29.6685
29.6865
29.6662
29.7059
29.6655
29.7737
29.6544
30.0273
28.4836
39.7506
29.6802
29.8595
29.6878
29.7326
29.6698
29.6947
29.6682
29.6818
29.6704
29.6761
29.6726
29.6743
29.6734
29.6738
29.6735
29.674
29.6731
29.675
29.6715
29.678
29.6684
29.6866
29.6662
29.706
29.6655
29.7738
29.6544
30.0275
28.4836
39.7505
29.6801
29.8595
29.6877
29.7326
29.6697
29.6948
29.6682
29.6819
29.6703
29.6761
29.6725
29.6743
29.6733
29.6738
29.6735
29.674
29.673
29.6749
29.6713
29.6781
29.6683
29.6867
29.6661
29.7061
29.6654
29.7739
29.6544
30.0277
28.4836
39.7505
29.68
29.8595
29.6877
29.7327
29.6697
29.6949
29.6681
29.682
29.6702
29.6762
29.6724
29.6743
29.6733
29.6738
29.6734
29.6739
29.6729
29.6749
29.6712
29.6781
29.6682
29.6867
29.6661
29.7061
29.6654
29.774
29.6544
30.0279
28.4836
39.7505
29.6799
29.8594
29.6876
29.7327
29.6697
29.6949
29.6681
29.682
29.6701
29.6762
29.6723
29.6742
29.6732
29.6738
29.6734
29.6739
29.6728
29.6749
29.6711
29.6782
29.6682
29.6868
29.6661
29.7062
29.6653
29.7741
29.6544
30.028
28.4836
39.7505
29.6798
29.8594
29.6876
29.7327
29.6696
29.695
29.6681
29.6821
29.67
29.6762
29.6723
29.6742
29.6732
29.6737
29.6733
29.6739
29.6728
29.675
29.671
29.6782
29.6681
29.6869
29.6661
29.7062
29.6653
29.7742
29.6544
30.0281
28.4836
39.7505
29.6797
29.8594
29.6875
29.7327
29.6696
29.695
29.668
29.6822
29.67
29.6763
29.6722
29.6742
29.6731
29.6737
29.6733
29.6739
29.6727
29.675
29.671
29.6783
29.6681
29.6869
29.666
29.7063
29.6653
29.7743
29.6544
30.0282
28.4836
39.7504
29.6797
29.8594
29.6875
29.7327
29.6696
29.695
29.668
29.6822
29.6699
29.6763
29.6722
29.6743
29.6731
29.6737
29.6732
29.6739
29.6727
29.675
29.6709
29.6783
29.6681
29.6869
29.666
29.7063
29.6653
29.7743
29.6544
30.0283
28.4836
39.7504
29.6796
29.8593
29.6875
29.7327
29.6696
29.695
29.668
29.6822
29.6699
29.6763
29.6721
29.6743
29.6731
29.6737
29.6732
29.6739
29.6726
29.675
29.6708
29.6783
29.668
29.687
29.666
29.7063
29.6652
29.7743
29.6544
30.0284
28.4836
39.7504
29.6796
29.8593
29.6874
29.7326
29.6696
29.695
29.668
29.6822
29.6699
29.6764
29.6721
29.6743
29.673
29.6737
29.6732
29.6739
29.6726
29.675
29.6708
29.6783
29.668
29.687
29.666
29.7063
29.6652
29.7743
29.6544
30.0284
28.4837
39.7504
29.6796
29.8592
29.6874
29.7326
29.6695
29.695
29.668
29.6822
29.6698
29.6764
29.6721
29.6743
29.673
29.6737
29.6732
29.6739
29.6726
29.675
29.6708
29.6783
29.668
29.6869
29.666
29.7063
29.6652
29.7743
29.6544
30.0284
28.4837
39.7504
29.6796
29.8591
29.6874
29.7325
29.6695
29.6949
29.668
29.6822
29.6698
29.6763
29.6721
29.6743
29.673
29.6737
29.6732
29.6739
29.6726
29.675
29.6708
29.6783
29.668
29.6869
29.666
29.7063
29.6652
29.7743
29.6544
30.0284
28.4837
39.7504
29.6796
29.859
29.6874
29.7323
29.6695
29.6948
29.6679
29.6821
29.6699
29.6763
29.6721
29.6742
29.673
29.6737
29.6732
29.6739
29.6726
29.6749
29.6708
29.6783
29.668
29.6868
29.666
29.7062
29.6652
29.7742
29.6544
30.0284
28.4837
39.7504
29.6796
29.8588
29.6873
29.7321
29.6695
29.6947
29.6679
29.682
29.6699
29.6763
29.6721
29.6742
29.673
29.6737
29.6732
29.6739
29.6726
29.6749
29.6708
29.6782
29.668
29.6868
29.666
29.7061
29.6652
29.7741
29.6544
30.0283
28.4837
39.7504
29.6797
29.8586
29.6873
29.7319
29.6695
29.6945
29.6679
29.6819
29.6699
29.6762
29.6721
29.6742
29.673
29.6737
29.6732
29.6738
29.6726
29.6749
29.6709
29.6782
29.668
29.6866
29.666
29.706
29.6652
29.774
29.6544
30.0282
28.4837
39.7504
29.6797
29.8583
29.6873
29.7316
29.6695
29.6943
29.6679
29.6817
29.67
29.6762
29.6722
29.6742
29.6731
29.6737
29.6732
29.6738
29.6726
29.6748
29.6709
29.6781
29.668
29.6865
29.666
29.7059
29.6652
29.7739
29.6544
30.0281
28.4837
39.7505
29.6798
29.8581
29.6873
29.7313
29.6696
29.6941
29.668
29.6815
29.6701
29.6761
29.6722
29.6742
29.6731
29.6737
29.6732
29.6738
29.6727
29.6748
29.671
29.678
29.6681
29.6863
29.666
29.7057
29.6652
29.7737
29.6544
30.028
28.4837
29.6696
29.6937
29.668
29.6813
29.6703
29.676
29.6723
29.6742
29.6731
29.6737
29.6732
29.6738
29.6728
29.6747
29.6711
29.6779
29.6681
29.6862
29.666
29.7056
29.6653
29.7735
29.6544
30.0278
28.4837
29.6937
29.668
29.6812
29.6703
29.6759
29.6724
29.6742
29.6732
29.6737
29.6732
29.6738
29.6728
29.6747
29.6712
29.6778
29.6682
29.686
29.666
29.7054
29.6653
29.7734
29.6544
30.0276
28.4837
29.6808
29.6705
29.6757
29.6725
29.6741
29.6732
29.6737
29.6733
29.6738
29.6729
29.6747
29.6713
29.6778
29.6682
29.686
29.666
29.7054
29.6653
29.7733
29.6544
30.0275
28.4837
29.6733
29.6738
29.6729
29.6747
29.6715
29.6776
29.6683
29.6859
29.666
29.7053
29.6654
29.7731
29.6544
30.0273
28.4837
29.6738
29.673
29.6746
29.6716
29.6776
29.6684
29.6859
29.666
29.7053
29.6654
29.7731
29.6544
30.0272
28.4837
29.6732
29.6746
29.6717
29.6775
29.6685
29.6859
29.6661
29.7053
29.6655
29.773
29.6544
30.027
28.4837
29.6746
29.6719
29.6775
29.6686
29.6858
29.6661
29.7053
29.6655
29.773
29.6544
30.0267
28.4837
29.6687
29.6857
29.6662
29.7052
29.6656
29.7728
29.6544
30.0265
28.4837
65.015
80.2976
52.9799
41.1195
33.0938
27.3358
23.4378
20.7812
18.8029
17.1524
15.6577
14.2651
13.0016
11.9825
11.4794
11.5836
12.2109
13.1067
14.0624
15.0079
15.9199
16.8225
17.7365
18.7578
19.9307
21.4599
23.4896
26.7927
31.4781
50.6718
47.3018
67.9005
45.5354
32.0339
23.3791
18.1321
15.1786
13.5257
12.533
11.8773
11.4137
11.0774
10.8371
10.6844
10.5989
10.5617
10.5669
10.6076
10.6771
10.771
10.8955
11.0442
11.2647
11.4999
11.9816
12.4197
14.0441
15.8938
21.0105
25.3428
48.2392
58.0455
37.9711
25.1382
18.0734
14.444
12.6744
11.7689
11.2612
10.9477
10.7448
10.6107
10.5222
10.4659
10.4348
10.428
10.4455
10.4833
10.5376
10.61
10.6996
10.8196
10.961
11.1703
11.4435
11.919
13.0605
15.0624
18.1108
21.1833
48.6942
44.3559
29.0053
19.5355
14.8714
12.7132
11.7241
11.2221
10.9315
10.7454
10.6209
10.5361
10.4792
10.4432
10.4218
10.4132
10.4168
10.4318
10.4581
10.4977
10.5522
10.6237
10.7233
10.8465
11.091
11.4327
12.7374
14.3113
17.063
20.0459
48.6068
32.386
22.1609
16.2646
13.3405
11.9885
11.3496
10.9993
10.7878
10.6428
10.5417
10.4693
10.418
10.3829
10.3613
10.3522
10.3547
10.3667
10.3873
10.4176
10.4588
10.5133
10.5852
10.686
10.8892
11.2647
12.56
13.8671
16.208
19.2462
44.5363
25.3734
18.2765
14.6009
12.5347
11.5623
11.0863
10.8204
10.6579
10.5428
10.4611
10.4015
10.3591
10.33
10.3119
10.3032
10.3028
10.3095
10.323
10.3438
10.3728
10.4093
10.4662
10.5394
10.7502
11.1305
12.5568
13.2576
15.3728
18.5013
39.6103
21.6282
16.1385
13.6766
12.0112
11.2452
10.8632
10.658
10.5339
10.4442
10.3793
10.3306
10.295
10.2696
10.2535
10.2451
10.2436
10.248
10.2577
10.2729
10.2945
10.3209
10.3664
10.4309
10.6435
11.0757
12.5282
12.8772
14.8308
17.8502
36.6988
19.2489
14.8029
13.1231
11.6511
11.0011
10.6719
10.5118
10.4173
10.3491
10.2989
10.2602
10.2315
10.2108
10.1973
10.1898
10.1875
10.1897
10.196
10.2061
10.2214
10.2399
10.2792
10.3372
10.5656
11.037
12.4301
12.5421
14.3544
17.4499
35.0399
17.415
13.7832
12.7926
11.4123
10.8185
10.514
10.386
10.3128
10.2618
10.2235
10.1934
10.1706
10.1537
10.1425
10.1359
10.1334
10.1342
10.1383
10.145
10.156
10.1696
10.2054
10.2631
10.5078
11.0135
12.1501
12.2905
13.9824
17.2092
33.9538
16.0651
12.8819
12.5782
11.2499
10.6803
10.3861
10.2802
10.2212
10.1835
10.1548
10.1318
10.1142
10.1007
10.0916
10.086
10.0835
10.0835
10.0859
10.0902
10.0983
10.1086
10.1431
10.2026
10.4655
10.9476
11.8874
12.1043
13.6767
17.0931
33.186
15.1918
12.1963
12.3904
11.1369
10.5783
10.2859
10.1932
10.1435
10.1154
10.094
10.0766
10.0631
10.0525
10.0451
10.0405
10.0382
10.0377
10.0392
10.0418
10.0481
10.0566
10.0911
10.155
10.4359
10.7895
11.6569
11.9685
13.4266
17.0468
32.6217
14.6073
11.7363
12.1756
11.0414
10.5015
10.2084
10.123
10.0787
10.0572
10.0411
10.0281
10.0178
10.0097
10.0038
10.0001
9.998
9.99732
9.99819
9.99966
10.0051
10.0126
10.0486
10.1181
10.4158
10.6526
11.4585
11.8715
13.2207
17.0547
32.1971
14.1923
11.4311
11.9184
10.9047
10.4358
10.1461
10.0658
10.0252
10.0082
9.99595
9.98626
9.97847
9.9722
9.9676
9.96459
9.96283
9.96212
9.96256
9.96355
9.96832
9.9755
10.0133
10.0886
10.4041
10.5403
11.2921
11.806
13.049
17.115
31.8727
13.871
11.218
11.6563
10.7214
10.3853
10.0993
10.0205
9.98145
9.96783
9.95789
9.95071
9.94473
9.9399
9.93628
9.93388
9.93244
9.9317
9.93205
9.93269
9.93769
9.94529
9.98446
10.0675
10.3955
10.45
11.1568
11.7579
12.8977
17.219
31.6215
13.605
11.0601
11.4579
10.5474
10.3538
10.0653
9.98416
9.94506
9.93374
9.92616
9.9208
9.91621
9.91244
9.90957
9.90768
9.90652
9.90598
9.90636
9.90717
9.91172
9.9194
9.96048
10.0522
10.3466
10.3748
11.0496
11.723
12.7618
17.3535
31.4251
13.3881
10.946
11.3097
10.4117
10.3353
10.0425
9.95802
9.91643
9.90637
9.89949
9.89571
9.89235
9.8896
9.88745
9.88601
9.88517
9.88477
9.88515
9.88573
9.89056
9.89943
9.94348
10.0433
10.2858
10.3133
10.9606
11.6959
12.6403
17.5117
31.2706
13.2098
10.8659
11.1942
10.3081
10.3262
10.0268
9.93748
9.89335
9.88394
9.8781
9.87506
9.87259
9.8705
9.86886
9.8678
9.86719
9.86697
9.8672
9.86813
9.87278
9.88227
9.92957
10.0308
10.2323
10.2667
10.8846
11.676
12.5325
17.6827
31.1484
13.0614
10.8085
11.102
10.2297
10.2699
10.0119
9.92185
9.87677
9.86722
9.86063
9.8582
9.8564
9.85487
9.85365
9.85289
9.8525
9.85241
9.85263
9.85355
9.85888
9.87107
9.91865
10
10.1823
10.2314
10.82
11.6619
12.4371
17.8575
31.0515
12.9386
10.7688
11.0267
10.1714
10.2133
10.0024
9.90851
9.86187
9.85347
9.84709
9.84512
9.84331
9.842
9.84103
9.84048
9.84018
9.84019
9.84076
9.84208
9.84785
9.85954
9.90876
9.97207
10.14
10.2058
10.7649
11.6535
12.3539
18.0354
30.9742
12.8363
10.7408
10.9659
10.1274
10.1655
9.97258
9.89947
9.85037
9.84164
9.83614
9.83443
9.83285
9.83177
9.831
9.83058
9.83056
9.83076
9.83148
9.83296
9.8378
9.85099
9.90286
9.94733
10.1037
10.1873
10.7178
11.6498
12.2813
18.2164
30.9125
12.75
10.7216
10.9158
10.094
10.1262
9.94357
9.89266
9.84128
9.83244
9.82654
9.82547
9.82452
9.82383
9.82315
9.82287
9.82291
9.82304
9.82335
9.82455
9.82973
9.84411
9.89841
9.92693
10.073
10.1742
10.6761
11.6493
12.2186
18.395
30.8633
12.6754
10.7084
10.8738
10.0686
10.0938
9.919
9.88864
9.83508
9.82542
9.81929
9.81841
9.81751
9.81692
9.81651
9.81631
9.81631
9.81643
9.81685
9.81823
9.82359
9.83971
9.89041
9.91023
10.047
10.1656
10.6393
11.6508
12.1644
18.5655
30.8238
12.6107
10.6993
10.8391
10.0495
10.0675
9.89882
9.88631
9.83029
9.82006
9.81351
9.81271
9.81186
9.81148
9.81118
9.81104
9.811
9.81112
9.81153
9.81312
9.81876
9.83628
9.88072
9.89694
10.025
10.1609
10.6074
11.6533
12.1163
18.7285
30.7921
12.5541
10.6919
10.8112
10.0354
10.0465
9.88278
9.87975
9.82722
9.81599
9.809
9.80823
9.80745
9.8071
9.80681
9.80671
9.80676
9.80695
9.80736
9.80916
9.81507
9.8341
9.8715
9.88674
10.0064
10.159
10.58
11.6563
12.0739
18.8838
30.7665
12.5043
10.6857
10.7885
10.0253
10.029
9.87008
9.8717
9.82506
9.81303
9.80555
9.80476
9.80396
9.80368
9.80344
9.80338
9.80343
9.80364
9.80407
9.80611
9.81247
9.83073
9.8631
9.87903
9.99029
10.1591
10.556
11.6592
12.036
19.0293
30.7459
12.4612
10.6806
10.7684
10.0175
10.0156
9.86029
9.86417
9.82321
9.81095
9.80297
9.80212
9.80132
9.80105
9.80083
9.80079
9.80086
9.80113
9.80161
9.80394
9.81064
9.82695
9.85564
9.87334
9.97707
10.1603
10.5341
11.6627
12.0039
19.1669
30.7293
12.4235
10.6764
10.7518
10.0118
10.0049
9.85279
9.85789
9.82007
9.80981
9.80105
9.8002
9.79935
9.79912
9.79892
9.79891
9.79901
9.79933
9.79986
9.80245
9.80953
9.82347
9.8493
9.86943
9.96601
10.1634
10.515
11.6663
11.9751
19.2982
30.7159
12.3899
10.6726
10.7379
10.0085
9.99685
9.84731
9.8523
9.81659
9.80907
9.79968
9.79884
9.79795
9.79776
9.79758
9.7976
9.79771
9.79805
9.79857
9.80141
9.80873
9.82022
9.84363
9.86661
9.95713
10.1687
10.4982
11.6698
11.9487
19.4164
30.7051
12.3609
10.6689
10.724
10.0061
9.99058
9.84301
9.84798
9.81357
9.80907
9.79875
9.79791
9.79696
9.79681
9.79665
9.79668
9.79678
9.79714
9.79765
9.80079
9.80822
9.81762
9.83884
9.86505
9.94925
10.1745
10.4838
11.6736
11.9249
19.5294
30.6964
12.3353
10.6657
10.7109
10.0047
9.98583
9.84
9.84421
9.81079
9.80878
9.79808
9.7973
9.79628
9.79616
9.79601
9.79606
9.79615
9.79653
9.79702
9.80037
9.80705
9.81512
9.83478
9.86433
9.94296
10.179
10.4701
11.6773
11.904
19.6372
30.6894
12.3127
10.6629
10.6998
10.0044
9.98172
9.83761
9.84116
9.80857
9.80804
9.79772
9.79693
9.7958
9.79574
9.79559
9.79565
9.79572
9.79606
9.79647
9.80005
9.80582
9.81338
9.83134
9.86412
9.93746
10.1829
10.4575
11.6808
11.8858
19.7391
30.6837
12.2924
10.6611
10.6904
10.0047
9.97822
9.83598
9.83861
9.80666
9.80705
9.79749
9.79665
9.79548
9.79545
9.7953
9.79534
9.79538
9.79569
9.79612
9.79996
9.80458
9.81192
9.82843
9.86446
9.93261
10.1871
10.4467
11.6844
11.8695
19.8352
30.6793
12.2741
10.6594
10.6826
10.0052
9.97555
9.83484
9.83652
9.80513
9.80604
9.79736
9.79649
9.79524
9.79523
9.79509
9.79513
9.79515
9.79547
9.79588
9.79964
9.8034
9.81086
9.82597
9.86515
9.92851
10.191
10.4374
11.6879
11.855
19.9251
30.6757
12.2579
10.6579
10.6759
10.0056
9.97308
9.83401
9.83488
9.80393
9.80519
9.79729
9.79643
9.79506
9.79508
9.79494
9.79499
9.79499
9.79531
9.79574
9.79931
9.8024
9.81015
9.82389
9.86615
9.92468
10.1949
10.4293
11.691
11.842
20.0092
30.6728
12.2436
10.6564
10.669
10.0061
9.97116
9.83368
9.83342
9.80298
9.80433
9.79703
9.79639
9.79496
9.795
9.79486
9.79491
9.79489
9.79522
9.79564
9.79891
9.80145
9.80961
9.82215
9.86722
9.92171
10.198
10.4211
11.6944
11.831
20.0878
30.6706
12.2308
10.6547
10.6625
10.0063
9.9696
9.83344
9.83226
9.80226
9.80376
9.79675
9.79647
9.79488
9.79496
9.79482
9.79487
9.79484
9.79519
9.79564
9.79863
9.80069
9.80945
9.82051
9.86835
9.91913
10.2008
10.413
11.6976
11.8214
20.1587
30.6687
12.2196
10.6534
10.6563
10.0064
9.96831
9.83356
9.83137
9.80177
9.80314
9.79644
9.79647
9.79484
9.79494
9.79481
9.79486
9.79481
9.79518
9.79561
9.79834
9.80003
9.80929
9.81931
9.86965
9.91703
10.2037
10.4056
11.7006
11.8132
20.2181
30.6671
12.2098
10.6524
10.6506
10.0061
9.96706
9.83381
9.83071
9.80139
9.80275
9.79618
9.79639
9.7948
9.79494
9.79481
9.79487
9.79482
9.79524
9.79558
9.79817
9.79944
9.80935
9.81822
9.87109
9.91477
10.2054
10.3986
11.7037
11.806
20.2523
30.6657
12.2019
10.6512
10.6451
10.0056
9.96608
9.83433
9.83038
9.80116
9.80239
9.79592
9.79628
9.79479
9.79494
9.79481
9.79489
9.79482
9.79525
9.79542
9.79793
9.79895
9.80945
9.81756
9.87297
9.9131
10.2079
10.3922
11.7063
11.7994
20.2858
30.6647
12.1948
10.65
10.6403
10.0048
9.96496
9.8349
9.8302
9.80097
9.80215
9.7957
9.79615
9.79474
9.79493
9.7948
9.79488
9.79478
9.79527
9.79526
9.7978
9.7985
9.80967
9.81699
9.87479
9.91123
10.21
10.387
11.7083
11.7928
20.3161
30.6638
12.1887
10.6489
10.636
10.0038
9.96386
9.83552
9.83013
9.80087
9.80197
9.7955
9.79602
9.79471
9.79492
9.79478
9.79486
9.79475
9.79524
9.79507
9.79767
9.79816
9.80996
9.81658
9.87653
9.90938
10.2114
10.3817
11.7106
11.7875
20.3437
30.663
12.1831
10.6482
10.6321
10.0028
9.96281
9.83612
9.83013
9.8008
9.80185
9.79533
9.79588
9.79467
9.79489
9.79475
9.79483
9.79471
9.79518
9.7949
9.79761
9.79786
9.81029
9.81626
9.87821
9.90758
10.2124
10.3769
11.7127
11.7827
20.3689
30.6625
12.1784
10.6478
10.6283
10.0015
9.96191
9.83676
9.83019
9.80077
9.80175
9.79516
9.79574
9.79462
9.79486
9.79471
9.7948
9.79466
9.79511
9.79472
9.79756
9.7976
9.81064
9.81599
9.87984
9.90591
10.213
10.3724
11.7144
11.7785
20.3916
30.662
12.1741
10.6473
10.6251
10.0003
9.96115
9.83734
9.83027
9.80079
9.8017
9.795
9.7956
9.79453
9.7948
9.79465
9.79475
9.79459
9.79502
9.79454
9.79755
9.79738
9.81103
9.81574
9.88135
9.90432
10.2134
10.3682
11.716
11.7749
20.4124
30.6616
12.1703
10.6468
10.6222
9.99912
9.96054
9.83781
9.8304
9.80086
9.80169
9.79486
9.79548
9.79442
9.79473
9.79457
9.79468
9.79451
9.79494
9.79437
9.79755
9.79722
9.81149
9.81552
9.88271
9.90287
10.2136
10.3644
11.7173
11.7715
20.4313
30.6612
12.1669
10.6464
10.6195
9.99796
9.95998
9.83815
9.83058
9.80098
9.80172
9.79473
9.79538
9.79431
9.79466
9.79448
9.7946
9.79442
9.79487
9.79421
9.79758
9.79709
9.81204
9.8153
9.88391
9.90147
10.2137
10.3609
11.7184
11.7685
20.4484
30.661
12.1638
10.6459
10.6171
9.99689
9.9595
9.83838
9.83075
9.80111
9.80177
9.79462
9.79531
9.79421
9.79458
9.7944
9.79453
9.79433