/*--------------------------------*- C++ -*----------------------------------*\
  =========                 |
  \\      /  F ield         | OpenFOAM: The Open Source CFD Toolbox
   \\    /   O peration     | Website:  https://openfoam.org
    \\  /    A nd           | Version:  10
     \\/     M anipulation  |
\*---------------------------------------------------------------------------*/
FoamFile
{
    format      ascii;
    class       volScalarField;
    location    "0.05";
    object      p;
}
// * * * * * * * * * * * * * * * * * * * * * * * * * * * * * * * * * * * * * //

dimensions      [0 2 -2 0 0 0 0];

internalField   nonuniform List<scalar> 
116798
(
-17.3937
-35.8472
-40.0684
-27.4231
-13.2023
-2.79553
3.47808
6.85023
8.48135
9.20361
9.5194
9.77306
10.2407
9.84693
10.5641
11.7329
13.5755
15.9699
18.9073
22.4196
26.6024
31.5674
37.5001
44.542
52.9577
62.7249
74.0591
86.2926
100.436
115.798
129.516
116.577
81.2255
56.7217
42.2086
34.0154
29.2603
26.2348
24.1181
22.5526
21.4426
20.78
20.6512
20.1693
20.0124
20.2553
20.8257
21.7184
22.954
24.5348
26.5416
28.98
32.0034
35.5548
39.9596
44.868
50.9383
57.0807
64.6305
71.9551
149.396
134.708
99.6601
77.2032
62.9695
53.804
47.6529
43.2054
39.8338
37.2012
35.124
33.55
32.4935
31.5533
30.9115
30.6116
30.6105
30.8946
31.5326
32.4926
33.8447
35.5556
37.7841
40.3683
43.6752
47.1563
51.5753
55.56
60.2755
63.7174
151.197
142.948
116.578
96.3454
82.4468
72.4102
64.9217
59.0675
54.4922
50.8522
47.937
45.6694
43.994
42.6689
41.6244
40.9725
40.6643
40.6958
41.0818
41.802
42.9158
44.3357
46.2666
48.4277
51.2611
54.0035
57.571
60.2673
63.6214
65.271
154.681
150.145
132.262
114.141
100.014
88.6934
80.0178
73.0382
67.5618
63.1029
59.5425
56.7091
54.5414
53.0914
51.4362
50.4676
49.8977
49.6966
49.867
50.3731
51.2697
52.434
54.0776
55.8593
58.2517
60.3746
63.2398
65.0822
67.6037
68.6327
156.946
152.24
140.685
125.526
112.463
101.021
91.9944
84.5033
78.514
73.585
69.5981
66.3732
63.823
61.8794
60.1576
59.0024
58.2295
57.8339
57.8155
58.1215
58.8116
59.7437
61.1169
62.5439
64.5414
66.1454
68.4499
69.6912
71.7183
72.3215
154.945
150.136
142.807
130.833
119.923
109.456
100.918
93.5036
87.4541
82.3578
78.1748
74.7268
71.9527
69.7559
67.8948
66.5483
65.5915
65.0167
64.8166
64.9247
65.4051
66.0908
67.1934
68.28
69.9131
71.0835
72.9423
73.7514
75.4462
75.8032
149.962
145.863
141.585
132.452
123.866
114.823
107.223
100.279
94.4866
89.4744
85.291
81.777
78.8982
76.5856
74.6312
73.1318
72.0403
71.3205
70.9628
70.8909
71.1765
71.6285
72.4859
73.2707
74.5888
75.401
76.9082
77.3891
78.8573
79.0116
144.601
141.196
139.088
132.116
125.561
117.985
111.476
105.212
99.8837
95.1324
91.0986
87.6426
84.7557
82.382
80.3911
78.8147
77.6357
76.8001
76.3073
76.075
76.1846
76.4256
77.0628
77.5821
78.6321
79.1471
80.3703
80.6057
81.9135
81.9158
139.813
136.94
136.287
130.835
125.908
119.648
114.203
108.687
103.922
99.5396
95.7582
92.452
89.6498
87.297
85.309
83.7013
82.4614
81.5393
80.9394
80.5728
80.5327
80.5912
81.0398
81.3346
82.1615
82.4339
83.4296
83.4753
84.67
84.5416
135.737
133.27
133.567
129.166
125.475
120.331
115.841
111.058
106.879
102.912
99.4432
96.3472
93.6838
91.41
89.4638
87.8623
86.594
85.6147
84.9345
84.4601
84.2964
84.2023
84.4922
84.6004
85.244
85.3207
86.1338
86.0353
87.142
86.9076
132.293
130.139
131.06
127.388
124.642
120.401
116.729
112.61
108.995
105.45
102.318
99.4648
96.9772
94.8181
92.9432
91.3822
90.1142
89.1047
88.3706
87.8148
87.5552
87.3371
87.4993
87.4551
87.9507
87.8715
88.5411
88.3355
89.3604
89.0428
129.37
127.457
128.799
125.644
123.621
120.097
117.092
113.571
110.468
107.328
104.533
101.936
99.6432
97.6231
95.8619
94.3454
93.0992
92.0828
91.3183
90.7052
90.3748
90.0603
90.1227
89.956
90.3335
90.1317
90.692
90.4326
91.3264
90.9655
126.868
125.145
126.764
123.992
122.526
119.575
117.145
114.111
111.453
108.698
106.225
103.879
101.786
99.9194
98.3566
96.8313
95.6225
94.6185
93.844
93.1948
92.816
92.428
92.4165
92.1527
92.4381
92.1399
92.6168
92.3257
93.0896
92.7007
124.709
123.117
124.882
122.451
121.429
118.933
116.969
114.354
112.097
109.673
107.491
105.393
103.5
101.783
100.273
98.8982
97.7508
96.7746
96.0062
95.3384
94.9292
94.4887
94.4251
94.0861
94.3009
93.9271
94.3387
94.0245
94.6784
94.2682
122.834
121.325
123.138
121.034
120.369
118.237
116.655
114.395
112.483
110.351
108.442
106.558
104.865
103.297
101.899
100.625
99.5437
98.6062
97.8572
97.1867
96.7634
96.2848
96.187
95.7917
95.9535
95.5209
95.8813
95.547
96.1105
95.6842
121.177
119.759
121.586
119.75
119.369
117.528
116.261
114.296
112.682
110.806
109.143
107.466
105.944
104.52
103.24
102.066
101.054
100.161
99.44
98.7775
98.3542
97.8514
97.7356
97.2993
97.4225
96.9448
97.2651
96.9094
97.3983
96.9612
119.75
118.388
120.206
118.599
118.441
116.834
115.824
114.106
112.742
111.076
109.646
108.153
106.797
105.51
104.342
103.266
102.327
101.486
100.797
100.149
99.7346
99.2201
99.0975
98.6331
98.7305
98.2198
98.5117
98.126
98.5471
98.1106
118.486
117.17
119.025
117.571
117.589
116.17
115.374
113.863
112.713
111.247
110.001
108.673
107.467
106.307
105.246
104.259
103.394
102.607
101.961
101.332
100.933
100.415
100.296
99.8131
99.8961
99.3624
99.6366
99.2338
99.5422
99.1444
117.366
116.09
117.976
116.651
116.81
115.545
114.926
113.59
112.63
111.331
110.244
109.062
107.992
106.948
105.988
105.088
104.294
103.559
102.957
102.353
101.976
101.461
101.35
100.857
100.935
100.386
100.649
100.229
100.448
100.082
116.373
115.135
117.044
115.829
116.102
114.965
114.493
113.304
112.502
111.346
110.403
109.349
108.401
107.465
106.605
105.787
105.053
104.371
103.813
103.24
102.891
102.384
102.279
101.782
101.863
101.305
101.559
101.126
101.261
100.936
115.493
114.286
116.215
115.093
115.461
114.43
114.084
113.016
112.347
111.31
110.497
109.558
108.719
107.878
107.102
106.36
105.694
105.064
104.551
104.01
103.689
103.197
103.103
102.604
102.692
102.129
102.379
101.936
101.994
101.708
114.711
113.532
115.476
114.434
114.879
113.94
113.702
112.743
112.179
111.243
110.545
109.705
108.965
108.211
107.514
106.841
106.237
105.657
105.188
104.679
104.39
103.913
103.835
103.338
103.435
102.87
103.116
102.667
102.656
102.405
114.016
112.861
114.817
113.844
114.353
113.492
113.349
112.471
112.014
111.164
110.56
109.807
109.154
108.477
107.852
107.244
106.697
106.165
105.739
105.261
105.005
104.543
104.487
103.996
104.101
103.535
103.778
103.326
103.253
103.035
113.395
112.261
114.228
113.314
113.875
113.084
113.023
112.226
111.852
111.076
110.555
109.875
109.299
108.691
108.131
107.582
107.088
106.601
106.217
105.771
105.548
105.104
105.073
104.588
104.699
104.132
104.372
103.921
103.791
103.603
112.842
111.726
113.7
112.839
113.44
112.712
112.721
111.991
111.696
110.984
110.536
109.921
109.413
108.865
108.365
107.869
107.424
106.98
106.636
106.221
106.03
105.607
105.599
105.122
105.235
104.667
104.902
104.456
104.276
104.117
112.35
111.248
113.225
112.41
113.041
112.371
112.443
111.772
111.547
110.894
110.512
109.953
109.504
109.011
108.563
108.116
107.717
107.312
107.007
106.62
106.46
106.055
106.071
105.6
105.713
105.144
105.375
104.939
104.713
104.58
111.913
110.831
112.797
112.02
112.671
112.058
112.186
111.569
111.408
110.806
110.483
109.974
109.58
109.135
108.735
108.332
107.975
107.605
107.335
106.974
106.842
106.452
106.49
106.025
106.139
105.573
105.796
105.372
105.109
104.999
111.52
110.452
112.419
111.664
112.327
111.771
111.948
111.382
111.276
110.72
110.451
109.987
109.643
109.24
108.885
108.521
108.201
107.864
107.625
107.288
107.181
106.805
106.86
106.401
106.519
105.964
106.185
105.743
105.468
105.375
111.163
110.098
112.084
111.345
112.035
111.511
111.73
111.21
111.151
110.636
110.415
109.992
109.693
109.329
109.013
108.685
108.4
108.091
107.881
107.564
107.481
107.117
107.188
106.733
106.858
106.316
106.536
106.101
105.776
105.713
110.843
109.78
111.778
111.057
111.764
111.276
111.53
111.052
111.035
110.555
110.378
109.99
109.731
109.403
109.123
108.826
108.572
108.289
108.106
107.807
107.746
107.394
107.477
107.026
107.158
106.629
106.858
106.419
106.06
106.016
110.558
109.491
111.5
110.798
111.521
111.064
111.349
110.908
110.927
110.478
110.339
109.982
109.76
109.463
109.215
108.947
108.722
108.462
108.304
108.022
107.982
107.639
107.734
107.285
107.422
106.899
107.125
106.701
106.317
106.289
110.301
109.23
111.247
110.567
111.304
110.873
111.185
110.787
110.829
110.405
110.301
109.97
109.781
109.512
109.293
109.051
108.851
108.613
108.478
108.211
108.191
107.857
107.963
107.518
107.659
107.141
107.356
106.953
106.548
106.535
110.07
108.995
111.016
110.364
111.108
110.703
111.036
110.683
110.738
110.338
110.265
109.957
109.797
109.552
109.36
109.141
108.965
108.745
108.633
108.379
108.378
108.052
108.172
107.731
107.872
107.36
107.565
107.181
106.756
106.757
109.864
108.784
110.812
110.18
110.933
110.549
110.897
110.572
110.654
110.276
110.232
109.943
109.811
109.586
109.418
109.22
109.065
108.862
108.77
108.529
108.546
108.227
108.362
107.926
108.063
107.558
107.753
107.388
106.944
106.957
109.678
108.594
110.63
110.015
110.776
110.41
110.769
110.471
110.575
110.219
110.201
109.93
109.821
109.615
109.469
109.289
109.154
108.966
108.893
108.662
108.696
108.384
108.531
108.101
108.235
107.737
107.924
107.574
107.113
107.137
109.511
108.423
110.467
109.867
110.636
110.286
110.652
110.375
110.503
110.166
110.172
109.917
109.83
109.641
109.514
109.35
109.233
109.059
109.002
108.78
108.83
108.523
108.681
108.258
108.39
107.898
108.077
107.742
107.265
107.3
109.361
108.269
110.321
109.734
110.509
110.171
110.546
110.269
110.434
110.116
110.145
109.903
109.837
109.662
109.553
109.403
109.303
109.14
109.099
108.885
108.949
108.646
108.812
108.397
108.522
108.041
108.214
107.894
107.402
107.446
109.224
108.13
110.189
109.613
110.392
110.059
110.433
110.167
110.368
110.07
110.121
109.89
109.843
109.68
109.588
109.45
109.365
109.212
109.186
108.978
109.055
108.752
108.919
108.507
108.635
108.168
108.337
108.031
107.525
107.577
109.101
108.004
110.07
109.503
110.283
109.95
110.33
110.076
110.308
110.025
110.097
109.877
109.847
109.695
109.618
109.491
109.42
109.275
109.263
109.059
109.148
108.842
109.006
108.596
108.752
108.282
108.446
108.155
107.636
107.696
108.991
107.891
109.963
109.402
110.185
109.86
110.258
110.002
110.252
109.984
110.075
109.863
109.85
109.707
109.644
109.526
109.468
109.33
109.331
109.131
109.229
108.917
109.079
108.673
108.846
108.381
108.543
108.266
107.737
107.802
108.893
107.789
109.867
109.311
110.098
109.782
110.198
109.946
110.204
109.946
110.053
109.85
109.852
109.716
109.666
109.556
109.51
109.378
109.391
109.194
109.302
108.983
109.143
108.743
108.931
108.471
108.629
108.365
107.827
107.899
108.807
107.697
109.779
109.229
110.021
109.715
110.146
109.902
110.162
109.913
110.034
109.836
109.853
109.723
109.685
109.581
109.546
109.419
109.443
109.249
109.367
109.059
109.205
108.809
109.008
108.554
108.707
108.454
107.908
107.985
108.73
107.615
109.701
109.155
109.952
109.656
110.101
109.864
110.125
109.882
110.016
109.823
109.853
109.727
109.701
109.603
109.578
109.454
109.489
109.296
109.425
109.139
109.266
108.872
109.079
108.631
108.778
108.533
107.982
108.063
108.658
107.54
109.631
109.089
109.89
109.606
110.06
109.831
110.093
109.851
110
109.811
109.853
109.731
109.715
109.621
109.606
109.484
109.529
109.337
109.476
109.209
109.327
108.931
109.144
108.705
108.845
108.603
108.047
108.133
108.592
107.473
109.569
109.03
109.833
109.562
110.021
109.796
110.064
109.826
109.987
109.8
109.853
109.733
109.727
109.636
109.631
109.51
109.565
109.371
109.516
109.275
109.381
108.984
109.2
108.75
108.906
108.666
108.105
108.194
108.535
107.412
109.513
108.977
109.783
109.523
109.986
109.761
110.038
109.811
109.979
109.792
109.854
109.736
109.739
109.65
109.653
109.533
109.596
109.399
109.546
109.289
109.414
109.026
109.246
108.798
108.956
108.721
108.156
108.25
108.485
107.358
109.463
108.929
109.739
109.487
109.951
109.72
109.992
109.801
109.975
109.787
109.858
109.739
109.751
109.662
109.674
109.554
109.625
109.425
109.572
109.294
109.418
109.057
109.286
108.84
109.004
108.771
108.203
108.3
108.442
107.31
109.418
108.886
109.7
109.452
109.917
109.683
109.98
109.795
109.975
109.785
109.863
109.742
109.763
109.674
109.695
109.574
109.653
109.449
109.595
109.29
109.438
109.083
109.321
108.86
109.049
108.815
108.245
108.344
108.402
107.267
109.378
108.847
109.667
109.418
109.886
109.656
109.979
109.797
109.982
109.787
109.871
109.748
109.776
109.686
109.716
109.593
109.68
109.473
109.622
109.295
109.462
109.108
109.352
108.893
109.081
108.855
108.282
108.385
108.364
107.227
109.342
108.813
109.637
109.387
109.859
109.635
109.981
109.802
109.997
109.79
109.88
109.754
109.791
109.699
109.737
109.611
109.706
109.498
109.662
109.32
109.491
109.132
109.379
108.927
109.11
108.891
108.316
108.421
108.33
107.191
109.311
108.781
109.612
109.358
109.836
109.615
109.968
109.787
110.003
109.793
109.89
109.762
109.808
109.713
109.759
109.629
109.731
109.52
109.696
109.35
109.519
109.156
109.404
108.957
109.138
108.923
108.347
108.455
108.298
107.158
109.283
108.753
109.588
109.334
109.815
109.596
109.95
109.761
110.006
109.795
109.902
109.771
109.826
109.727
109.782
109.648
109.756
109.541
109.72
109.372
109.543
109.178
109.428
108.985
109.164
108.952
108.375
108.485
108.27
107.129
109.258
108.727
109.562
109.312
109.797
109.578
109.931
109.75
110.008
109.797
109.918
109.783
109.846
109.742
109.806
109.668
109.782
109.559
109.735
109.386
109.564
109.198
109.449
109.01
109.189
108.978
108.401
108.512
108.244
107.103
109.235
108.703
109.541
109.289
109.781
109.561
109.914
109.747
110.005
109.799
109.939
109.796
109.868
109.758
109.831
109.69
109.812
109.578
109.745
109.396
109.582
109.216
109.469
109.033
109.211
109.001
108.424
108.537
108.221
107.079
109.215
108.682
109.522
109.268
109.766
109.546
109.901
109.745
109.968
109.799
109.966
109.809
109.892
109.775
109.857
109.71
109.85
109.596
109.726
109.403
109.597
109.233
109.487
109.053
109.231
109.023
108.445
108.559
108.201
107.058
109.198
108.663
109.505
109.249
109.752
109.531
109.888
109.729
109.95
109.791
109.982
109.821
109.917
109.794
109.884
109.727
109.876
109.595
109.724
109.407
109.612
109.248
109.504
109.07
109.25
109.041
108.463
108.579
108.182
107.039
109.181
108.645
109.489
109.232
109.737
109.519
109.876
109.716
109.945
109.783
109.993
109.832
109.949
109.814
109.915
109.741
109.892
109.596
109.731
109.414
109.626
109.264
109.52
109.085
109.267
109.058
108.479
108.596
108.165
107.022
109.167
108.63
109.475
109.217
109.724
109.507
109.865
109.718
109.942
109.777
109.999
109.842
109.987
109.834
109.949
109.752
109.904
109.598
109.743
109.424
109.641
109.279
109.537
109.097
109.28
109.072
108.493
108.611
108.15
107.006
109.153
108.615
109.461
109.203
109.712
109.493
109.854
109.713
109.938
109.772
110.004
109.848
110.013
109.844
109.977
109.759
109.916
109.6
109.759
109.438
109.655
109.294
109.552
109.109
109.291
109.085
108.506
108.624
108.136
106.992
109.14
108.602
109.449
109.191
109.701
109.48
109.841
109.697
109.932
109.768
110.011
109.851
110.037
109.851
109.993
109.763
109.928
109.601
109.774
109.452
109.668
109.309
109.565
109.121
109.302
109.097
108.517
108.636
108.124
106.979
109.128
108.591
109.437
109.18
109.691
109.468
109.829
109.679
109.927
109.764
110.02
109.853
110.06
109.858
110.006
109.767
109.939
109.601
109.787
109.465
109.678
109.322
109.577
109.132
109.312
109.108
108.527
108.647
108.112
106.968
109.117
108.58
109.426
109.17
109.68
109.458
109.82
109.668
109.923
109.76
110.032
109.852
110.075
109.872
110.019
109.771
109.949
109.601
109.798
109.476
109.687
109.327
109.589
109.144
109.321
109.118
108.536
108.657
108.102
106.957
109.106
108.57
109.415
109.162
109.67
109.45
109.813
109.662
109.92
109.758
110.044
109.851
110.078
109.885
110.037
109.775
109.957
109.601
109.808
109.485
109.695
109.329
109.597
109.154
109.33
109.128
108.545
108.666
108.093
106.948
109.095
108.562
109.404
109.154
109.659
109.445
109.806
109.657
109.917
109.756
110.053
109.852
110.068
109.914
110.057
109.781
109.964
109.61
109.815
109.494
109.7
109.336
109.602
109.164
109.337
109.138
108.553
108.675
108.085
106.94
109.084
108.554
109.393
109.148
109.649
109.442
109.799
109.653
109.915
109.756
110.058
109.856
110.059
109.937
110.075
109.789
109.968
109.619
109.822
109.503
109.705
109.344
109.606
109.174
109.344
109.147
108.56
108.682
108.077
106.933
109.074
108.547
109.381
109.143
109.64
109.441
109.792
109.653
109.911
109.755
110.057
109.865
110.057
109.944
110.088
109.799
109.969
109.626
109.827
109.512
109.709
109.353
109.61
109.184
109.35
109.156
108.567
108.69
108.07
106.926
109.063
108.541
109.369
109.139
109.631
109.441
109.785
109.657
109.907
109.755
110.053
109.873
110.058
109.95
110.096
109.81
109.97
109.63
109.83
109.52
109.711
109.362
109.614
109.193
109.355
109.164
108.574
108.696
108.064
106.921
109.052
108.535
109.358
109.136
109.621
109.442
109.779
109.661
109.904
109.756
110.046
109.884
110.059
109.956
110.099
109.822
109.97
109.634
109.83
109.529
109.713
109.372
109.617
109.203
109.36
109.173
108.58
108.703
108.059
106.916
109.042
108.53
109.345
109.133
109.611
109.446
109.775
109.669
109.901
109.758
110.038
109.898
110.059
109.96
110.098
109.834
109.97
109.644
109.829
109.536
109.714
109.383
109.62
109.212
109.364
109.181
108.586
108.709
108.054
106.912
109.031
108.526
109.333
109.13
109.602
109.45
109.772
109.687
109.899
109.763
110.03
109.909
110.056
109.965
110.095
109.848
109.972
109.658
109.825
109.541
109.715
109.394
109.622
109.222
109.367
109.189
108.591
108.715
108.049
106.908
109.02
108.522
109.321
109.128
109.591
109.456
109.767
109.682
109.896
109.768
110.024
109.915
110.052
109.969
110.09
109.858
109.973
109.673
109.817
109.542
109.715
109.404
109.625
109.231
109.371
109.197
108.597
108.721
108.045
106.904
109.01
108.517
109.31
109.124
109.582
109.458
109.762
109.672
109.892
109.774
110.019
109.919
110.047
109.972
110.085
109.867
109.973
109.689
109.814
109.549
109.716
109.415
109.627
109.241
109.374
109.205
108.603
108.726
109.122
109.569
109.461
109.758
109.672
109.887
109.781
110.016
109.917
110.04
109.975
110.079
109.872
109.973
109.703
109.816
109.561
109.721
109.425
109.633
109.249
109.379
109.212
108.609
108.732
109.563
109.459
109.76
109.673
109.883
109.786
110.015
109.91
110.035
109.976
110.071
109.874
109.972
109.717
109.819
109.574
109.727
109.438
109.637
109.257
109.383
109.22
108.615
108.738
109.763
109.664
109.876
109.791
110.008
109.908
110.032
109.967
110.059
109.872
109.972
109.728
109.824
109.583
109.734
109.454
109.64
109.262
109.389
109.226
108.622
108.744
109.942
110.041
109.869
109.973
109.74
109.83
109.593
109.739
109.461
109.641
109.27
109.395
109.234
108.629
108.751
110.021
109.867
109.972
109.748
109.837
109.598
109.746
109.461
109.648
109.274
109.404
109.24
108.637
108.757
109.864
109.969
109.754
109.848
109.605
109.751
109.462
109.651
109.281
109.411
109.248
108.645
108.764
109.964
109.757
109.858
109.61
109.757
109.461
109.657
109.286
109.421
109.253
108.654
108.771
109.613
109.761
109.463
109.663
109.291
109.429
109.26
108.662
108.777
-39.7613
-46.1694
-42.687
-29.6507
-17.0453
-7.85668
-2.14985
1.0603
2.76452
3.65026
4.14279
4.47441
4.79097
4.88484
5.08929
5.55734
6.25654
7.12933
8.15913
9.34297
10.7353
12.3683
14.3425
16.6922
19.5855
23.0642
27.2893
33.026
42.1425
71.3597
125.464
98.0337
58.6533
47.9771
37.3062
31.3335
27.8858
25.6141
24.1662
23.0142
22.1572
21.5251
21.1472
20.8532
20.763
20.8929
21.2449
21.8063
22.6442
23.7109
25.2296
26.9093
29.4998
31.9067
36.2458
39.2859
46.3628
49.3744
59.6127
63.5463
139.211
108.186
78.9648
68.6708
59.6776
53.7404
49.3173
45.3241
42.1327
39.3391
37.0656
35.1866
33.7098
32.624
31.9216
31.4878
31.345
31.476
31.9635
32.6591
33.8742
35.1165
37.3305
38.9705
42.608
44.2404
49.71
51.0816
57.2824
61.3601
144.283
133.613
110.201
95.0776
83.0345
73.1504
66.2243
60.2424
55.8349
52.1434
49.2951
46.9979
45.2157
43.8755
42.9849
42.4297
42.2309
42.3334
42.8373
43.5363
44.8481
46.0507
48.4318
49.8763
53.7202
54.7842
60.3565
60.1643
66.1545
64.7673
150.682
146.067
129.162
111.694
100.045
88.6254
81.0287
73.9968
68.8526
64.3825
60.8855
57.984
55.6803
53.882
52.5659
51.6574
51.1461
50.9604
51.2165
51.6409
52.7297
53.5955
55.7097
56.6163
60.045
60.3397
65.2205
64.3256
69.3694
68.3757
156.153
150.364
140.089
122.087
112.309
100.093
92.4726
84.7766
79.2676
74.323
70.4842
67.2589
64.6982
62.6563
61.1361
60.0591
59.3992
59.0648
59.1916
59.4429
60.4036
60.9971
62.9739
63.4737
66.7139
66.4235
70.9675
69.3362
74.0132
72.2173
155.464
147.944
143.465
126.922
119.74
107.882
101.077
93.3427
87.9344
82.823
78.8451
75.4184
72.6673
70.4146
68.6752
67.3902
66.5306
65.9875
65.9201
65.9335
66.6942
66.9698
68.7211
68.7952
71.735
70.9495
75.0905
73.0781
77.41
75.6697
150.107
143.387
142.46
128.558
123.847
112.877
107.174
99.7216
94.6807
89.6149
85.6927
82.2057
79.3915
77.033
75.1946
73.796
72.8155
72.1285
71.921
71.7424
72.3441
72.3507
73.9215
73.6322
76.3489
75.1623
79.0104
76.653
80.7523
78.8449
144.453
138.866
139.823
128.41
125.65
115.855
111.372
104.407
99.9115
95.055
91.3288
87.9062
85.1133
82.7353
80.8272
79.3315
78.244
77.4211
77.0773
76.7105
77.1547
76.901
78.2946
77.6841
80.1878
78.6758
82.2605
79.6926
83.6045
81.6872
139.617
134.824
136.762
127.388
126.086
117.457
114.078
107.711
103.849
99.2822
95.8396
92.5539
89.8671
87.5225
85.6147
84.0759
82.9277
82.0092
81.5661
81.0446
81.367
80.8891
82.1362
81.2571
83.5932
81.8184
85.1916
82.4547
86.2357
84.2534
135.556
131.336
133.755
125.975
125.728
118.16
115.753
109.987
106.738
102.529
99.4234
96.328
93.7912
91.5279
89.6614
88.1149
86.9338
85.9448
85.424
84.7718
84.9869
84.3223
85.4462
84.3392
86.5319
84.5485
87.7368
84.904
88.5263
86.5507
132.127
128.352
130.98
124.428
124.934
118.277
116.673
111.482
108.828
104.975
102.228
99.3476
96.9955
94.8471
93.0511
91.5295
90.3467
89.3156
88.7462
87.9906
88.1314
87.3058
88.3394
87.0405
89.1222
86.9738
90.0069
87.1142
90.5887
88.6243
129.211
125.788
128.49
122.878
123.922
118.025
117.092
112.41
110.297
106.784
104.395
101.744
99.5927
97.5772
95.8713
94.4014
93.2395
92.1889
91.5926
90.7572
90.8457
89.8873
90.8549
89.3967
91.3919
89.1158
92.0126
89.1019
92.4245
90.5052
126.71
123.578
126.277
121.386
122.823
117.55
117.163
112.927
111.295
108.103
106.054
103.623
101.682
99.8109
98.2245
96.8085
95.6841
94.6323
94.0313
93.1364
93.1949
92.1282
93.0539
91.4641
93.3961
91.0193
93.8038
90.8908
94.0794
92.2033
124.546
121.628
124.394
119.976
121.721
116.948
117.009
113.145
111.942
109.035
107.3
105.086
103.352
101.621
100.151
98.8129
97.7405
96.7038
96.1111
95.1778
95.2287
94.0709
94.9764
93.2762
95.1665
92.7095
95.401
92.4997
95.5679
93.7414
122.672
119.893
122.767
118.668
120.651
116.283
116.709
113.157
112.328
109.675
108.23
106.211
104.671
103.08
101.734
100.478
99.4684
98.458
97.8887
96.9301
96.9822
95.7591
96.6582
94.8704
96.7335
94.2138
96.8318
93.9456
96.9135
95.1344
121.025
118.358
121.321
117.473
119.634
115.596
116.326
113.034
112.533
110.09
108.91
107.066
105.712
104.26
103.029
101.858
100.915
99.94
99.4085
98.4337
98.5049
97.2232
98.1365
96.2715
98.1235
95.5532
98.1148
95.2401
98.1351
96.3947
119.577
117.014
120.037
116.386
118.68
114.915
115.891
112.823
112.604
110.335
109.399
107.708
106.526
105.2
104.086
102.999
102.129
101.19
100.701
99.7228
99.8228
98.5018
99.4336
97.5082
99.3571
96.7467
99.2697
96.4005
99.2433
97.531
118.299
115.845
118.886
115.403
117.794
114.254
115.436
112.548
112.578
110.457
109.73
108.184
107.159
105.95
104.945
103.942
103.141
102.248
101.804
100.824
100.97
99.6106
100.579
98.5974
100.453
97.8114
100.305
97.4334
100.252
98.546
117.17
114.814
117.856
114.516
116.975
113.625
114.974
112.236
112.476
110.488
109.95
108.524
107.645
106.541
105.642
104.718
103.99
103.142
102.749
101.777
101.972
100.578
101.589
99.5603
101.426
98.7615
101.234
98.3534
101.176
99.4556
116.17
113.9
116.934
113.716
116.224
113.034
114.521
111.908
112.339
110.455
110.084
108.766
108.017
107.011
106.209
105.359
104.698
103.895
103.552
102.592
102.829
101.412
102.476
100.411
102.291
99.6122
102.064
99.183
101.994
100.335
115.284
113.087
116.108
112.995
115.535
112.483
114.084
111.572
112.181
110.375
110.153
108.924
108.296
107.375
106.665
105.884
105.292
104.531
104.243
103.294
103.578
102.134
103.256
101.163
103.06
100.374
102.807
99.9329
102.741
101.1
114.499
112.363
115.367
112.347
114.907
111.973
113.667
111.232
111.991
110.261
110.174
109.025
108.505
107.661
107.033
106.316
105.786
105.068
104.832
103.897
104.231
102.778
103.946
101.831
103.743
101.058
103.473
100.609
103.415
101.791
113.8
111.722
114.7
111.766
114.333
111.504
113.274
110.907
111.789
110.125
110.16
109.077
108.656
107.88
107.329
106.671
106.202
105.522
105.34
104.417
104.804
103.342
104.553
102.424
104.351
101.673
104.069
101.22
104.022
102.415
113.178
111.151
114.099
111.244
113.811
111.074
112.905
110.596
111.589
109.979
110.123
109.095
108.765
108.048
107.567
106.962
106.55
105.905
105.775
104.865
105.303
103.835
105.086
102.951
104.892
102.225
104.602
101.771
104.569
102.977
112.619
110.642
113.558
110.776
113.336
110.68
112.563
110.308
111.395
109.826
110.069
109.088
108.838
108.174
107.758
107.201
106.842
106.231
106.15
105.252
105.74
104.265
105.558
103.42
105.374
102.721
105.079
102.27
105.061
103.491
112.121
110.189
113.072
110.354
112.906
110.323
112.245
110.041
111.207
109.673
110.004
109.062
108.887
108.268
107.911
107.397
107.088
106.506
106.474
105.586
106.123
104.643
105.975
103.84
105.802
103.169
105.506
102.72
105.505
103.954
111.675
109.783
112.637
109.976
112.519
109.995
111.954
109.789
111.03
109.522
109.933
109.022
108.916
108.336
108.033
107.557
107.296
106.74
106.754
105.874
106.46
104.974
106.347
104.211
106.183
103.566
105.893
103.126
105.907
104.371
111.274
109.416
112.251
109.62
112.184
109.697
111.687
109.556
110.862
109.375
109.859
108.974
108.93
108.384
108.131
107.689
107.471
106.938
106.997
106.124
106.757
105.266
106.677
104.544
106.522
103.922
106.241
103.491
106.269
104.747
110.912
109.086
111.903
109.295
111.889
109.424
111.446
109.338
110.706
109.233
109.786
108.92
108.933
108.416
108.209
107.797
107.62
107.107
107.209
106.339
107.02
105.522
106.974
104.837
106.827
104.244
106.553
103.818
106.597
105.084
110.587
108.79
111.592
109
111.623
109.177
111.227
109.138
110.561
109.098
109.714
108.862
108.929
108.436
108.272
107.885
107.747
107.25
107.394
106.526
107.252
105.747
107.237
105.097
107.1
104.521
106.842
104.111
106.894
105.387
110.297
108.525
111.308
108.736
111.383
108.953
111.027
108.952
110.428
108.97
109.645
108.802
108.92
108.446
108.322
107.957
107.855
107.372
107.557
106.688
107.458
105.944
107.471
105.326
107.343
104.763
107.107
104.374
107.162
105.66
110.037
108.286
111.048
108.506
111.167
108.751
110.846
108.778
110.306
108.849
109.58
108.743
108.908
108.45
108.362
108.016
107.948
107.476
107.7
106.827
107.642
106.115
107.676
105.529
107.561
104.979
107.344
104.61
107.405
105.905
109.804
108.073
110.796
108.324
110.962
108.574
110.678
108.618
110.192
108.736
109.52
108.684
108.894
108.448
108.394
108.064
108.028
107.564
107.827
106.948
107.804
106.265
107.848
105.71
107.754
105.173
107.556
104.823
107.623
106.126
109.595
107.879
110.599
108.134
110.778
108.411
110.528
108.48
110.094
108.63
109.465
108.626
108.879
108.441
108.42
108.103
108.097
107.639
107.939
107.052
107.951
106.395
108.002
105.869
107.927
105.348
107.745
105.017
107.82
106.326
109.408
107.702
110.424
107.963
110.614
108.265
110.392
108.36
110.003
108.533
109.414
108.571
108.864
108.432
108.441
108.135
108.158
107.703
108.039
107.142
108.081
106.512
108.136
106.013
108.08
105.504
107.914
105.19
107.999
106.505
109.24
107.542
110.268
107.809
110.467
108.131
110.273
108.253
109.926
108.442
109.37
108.517
108.85
108.42
108.458
108.16
108.211
107.756
108.128
107.219
108.198
106.611
108.248
106.139
108.215
105.645
108.063
105.349
108.159
106.666
109.087
107.398
110.129
107.668
110.334
108.01
110.168
108.178
109.857
108.36
109.329
108.466
108.836
108.407
108.473
108.18
108.258
107.801
108.209
107.286
108.302
106.702
108.35
106.254
108.335
105.77
108.197
105.491
108.304
106.811
108.948
107.267
110.004
107.543
110.215
107.895
110.08
108.106
109.798
108.284
109.294
108.418
108.825
108.392
108.486
108.195
108.3
107.838
108.281
107.342
108.397
106.78
108.445
106.353
108.443
105.884
108.315
105.621
108.433
106.941
108.823
107.146
109.89
107.429
110.112
107.788
110.004
108.046
109.744
108.214
109.263
108.371
108.815
108.377
108.498
108.207
108.338
107.869
108.347
107.39
108.481
106.848
108.531
106.434
108.547
105.984
108.423
105.736
108.552
107.058
108.712
107.035
109.792
107.323
110.02
107.691
109.935
107.983
109.695
108.149
109.236
108.328
108.807
108.361
108.508
108.215
108.373
107.894
108.407
107.43
108.556
106.905
108.609
106.503
108.64
106.073
108.519
105.842
108.659
107.163
108.614
106.932
109.703
107.226
109.939
107.604
109.873
107.923
109.65
108.09
109.213
108.285
108.801
108.344
108.518
108.22
108.405
107.914
108.461
107.464
108.623
106.952
108.678
106.566
108.722
106.152
108.605
105.936
108.755
107.257
108.529
106.836
109.622
107.139
109.867
107.526
109.818
107.866
109.612
108.036
109.194
108.246
108.796
108.327
108.528
108.222
108.434
107.929
108.511
107.491
108.682
106.989
108.741
106.621
108.796
106.222
108.68
106.023
108.844
107.342
108.453
106.753
109.551
107.061
109.803
107.455
109.768
107.814
109.582
107.987
109.179
108.208
108.794
108.309
108.538
108.222
108.462
107.941
108.557
107.513
108.736
107.021
108.798
106.671
108.862
106.28
108.751
106.096
108.928
107.417
108.379
106.679
109.487
106.989
109.731
107.407
109.723
107.766
109.56
107.944
109.167
108.173
108.794
108.291
108.549
108.22
108.488
107.948
108.599
107.531
108.785
107.048
108.849
106.717
108.923
106.333
108.846
106.13
109.002
107.483
108.312
106.61
109.431
106.926
109.668
107.363
109.679
107.722
109.54
107.904
109.158
108.14
108.795
108.273
108.559
108.216
108.512
107.952
108.637
107.544
108.832
107.084
108.9
106.758
108.977
106.384
108.925
106.167
109.066
107.543
108.254
106.546
109.383
106.865
109.601
107.334
109.641
107.678
109.514
107.866
109.151