/*--------------------------------*- C++ -*----------------------------------*\
  =========                 |
  \\      /  F ield         | OpenFOAM: The Open Source CFD Toolbox
   \\    /   O peration     | Website:  https://openfoam.org
    \\  /    A nd           | Version:  10
     \\/     M anipulation  |
\*---------------------------------------------------------------------------*/
FoamFile
{
    format      ascii;
    class       surfaceScalarField;
    location    "0.05";
    object      phi;
}
// * * * * * * * * * * * * * * * * * * * * * * * * * * * * * * * * * * * * * //

dimensions      [0 3 -1 0 0 0 0];

internalField   nonuniform List<scalar> 
343762
(
0.0136366
-0.0380954
0.00315131
0.0022948
-0.0103314
0.0654618
-0.00228959
0.00558308
0.0010893
0.0607635
-0.00710449
-0.0111392
0.0206973
0.0477332
-0.00844434
-0.0298297
0.0381137
0.0364396
-0.00836953
-0.0453238
0.0514461
0.0279147
-0.00784788
-0.0564468
0.0604453
0.0218516
-0.00710982
-0.0635306
0.0658714
0.0174452
-0.00628358
-0.0675881
0.0688421
0.0138861
-0.00544418
-0.0697285
0.0703655
0.0105783
-0.00460523
-0.0708026
0.0711138
0.00719182
-0.00374662
-0.0713108
0.071437
0.00355054
-0.0028314
-0.0715105
0.0717084
-0.000683632
-0.00178192
-0.071754
0.0717814
-0.00483811
-0.000917248
-0.0717282
0.0716376
-0.00946065
-0.000103076
-0.0714263
0.0711462
-0.0142577
0.000702033
-0.0707557
0.0703194
-0.0190418
0.00133587
-0.0697903
0.0692382
-0.0237688
0.0018534
-0.068602
0.0679529
-0.028483
0.00231519
-0.0672115
0.0664478
-0.0332762
0.00277055
-0.0655671
0.064649
-0.0382586
0.00324592
-0.0635818
0.0624395
-0.0435178
0.00376091
-0.0610907
0.0596421
-0.0491531
0.00431475
-0.0579438
0.0560479
-0.0551913
0.00491888
-0.0537572
0.0512559
-0.0617063
0.00556043
-0.0483636
0.0449813
-0.0685091
0.00622685
-0.0407158
0.0361134
-0.0755611
0.00695226
-0.0310119
0.024506
-0.0817596
0.00762748
-0.0150807
0.00763249
-0.0866634
0.00652985
-0.00122739
-0.0043599
-0.0773166
0.00944555
-0.0153989
-0.0124662
0.0532927
-0.0254276
-0.102801
0.0044221
0.00608447
0.125827
-0.0335322
-0.0839345
-0.0219402
0.0338812
0.0986456
-0.0266521
-0.0652927
-0.0450009
0.0550087
0.0769092
-0.0216243
-0.0511818
-0.0636839
0.0707454
0.0611088
-0.0169886
-0.0409921
-0.0764409
0.0806654
0.0497417
-0.0129742
-0.0336538
-0.0837998
0.0859107
0.0412497
-0.00970689
-0.0278832
-0.0873538
0.0881883
0.0341972
-0.00714846
-0.0227588
-0.0886676
0.0888279
0.0277437
-0.00514524
-0.0177872
-0.0888195
0.0886371
0.02153
-0.00356042
-0.01277
-0.0883673
0.0879871
0.0154524
-0.00230216
-0.00763606
-0.0875456
0.0870104
0.00949525
-0.0013239
-0.00240992
-0.0864102
0.0857437
0.00365065
-0.000574231
0.00279804
-0.0852491
0.0846336
-0.00210751
-7.50204e-05
0.00810445
-0.084015
0.0833778
-0.00766124
0.000193982
0.0133386
-0.0827424
0.0821139
-0.0131296
0.000419538
0.0184826
-0.0814734
0.0808269
-0.0185329
0.000696797
0.0235977
-0.0801382
0.0794178
-0.0239328
0.00105551
0.0287752
-0.0786246
0.0777835
-0.0294097
0.00147553
0.0340955
-0.0768417
0.075826
-0.0350285
0.00194874
0.0396409
-0.0746744
0.0734441
-0.0408433
0.00243274
0.0454639
-0.0720457
0.0705109
-0.0468836
0.00295447
0.0516334
-0.0687324
0.0668401
-0.053184
0.00344291
0.0581233
-0.0646734
0.062224
-0.0596964
0.00402243
0.0649718
-0.0593028
0.0562562
-0.0663957
0.00447053
0.0718892
-0.0528087
0.0487312
-0.0729928
0.00518117
0.0788148
-0.0436332
0.0386816
-0.0792864
0.00542325
0.0845185
-0.0333593
0.0265684
-0.0842929
0.00656532
0.0886915
-0.0170688
0.0124476
-0.0877893
0.00371907
0.0825531
0.00216662
-0.0850057
0.00944889
-0.00916284
-0.0771395
-0.000718646
0.0933389
-0.0154807
-0.138535
-0.014242
0.0299046
0.142888
-0.0200152
-0.107154
-0.0451791
0.05536
0.110952
-0.0139787
-0.0832864
-0.0645472
0.0715233
0.0864091
-0.0100989
-0.0662626
-0.0773398
0.08113
0.0690242
-0.00655179
-0.0538603
-0.0839458
0.0853723
0.0561231
-0.00368941
-0.0442489
-0.086241
0.0863485
0.0458797
-0.00173832
-0.0360639
-0.0863161
0.0858791
0.037145
-0.000643947
-0.0286251
-0.0854768
0.0848593
0.0293801
-0.000137409
-0.021663
-0.0843523
0.0836956
0.0223162
3.60761e-06
-0.0150988
-0.0831551
0.0824916
0.0158095
-4.71757e-05
-0.00888425
-0.0819375
0.0812612
0.00974028
-0.000179699
-0.00298714
-0.0806769
0.079971
0.00400421
-0.000311162
0.00256438
-0.0794493
0.0788355
-0.00158222
-0.000368333
0.00796164
-0.0782964
0.0776482
-0.0069715
-0.000341894
0.0132237
-0.0770729
0.0764032
-0.0123586
-0.000195522
0.0184697
-0.075788
0.0750765
-0.0177584
2.32863e-07
0.0237752
-0.0743839
0.0735645
-0.0232121
0.00025635
0.0292067
-0.0727387
0.0717769
-0.0287449
0.000500013
0.034797
-0.0707832
0.0696316
-0.0343845
0.000739101
0.0405756
-0.0684085
0.0670403
-0.0401529
0.00094558
0.0465444
-0.065573
0.0638953
-0.0460442
0.00117756
0.052714
-0.0620383
0.0600435
-0.0520596
0.00134044
0.0590045
-0.0578681
0.0553444
-0.0581107
0.00162986
0.0653661
-0.0524245
0.0494669
-0.0641415
0.00173303
0.0714874
-0.0462914
0.0424271
-0.069844
0.00222092
0.0771678
-0.037644
0.0334149
-0.075053
0.00211426
0.0815546
-0.029199
0.0234663
-0.079007
0.00318517
0.0847225
0.012589
-0.0821358
-0.000118069
-0.0150577
0.0837077
0.00463704
-0.0818067
0.00465495
-0.0111931
-0.103866
0.00568149
0.109106
-0.0109215
-0.141501
-0.0229993
0.0410626
0.136293
-0.0128553
-0.111511
-0.0561506
0.0653932
0.109796
-0.00752789
-0.0870976
-0.0724842
0.0767129
0.0864865
-0.00361764
-0.0695876
-0.0796524
0.080863
0.0693984
-0.00102142
-0.0563969
-0.081597
0.0814288
0.0563577
0.000207472
-0.0458955
-0.081172
0.0805295
0.045987
0.000551011
-0.0370341
-0.0800786
0.0794116
0.0372828
0.000418228
-0.0292731
-0.0789288
0.0783134
0.0296965
0.000192048
-0.0222797
-0.0778821
0.0773292
0.0228661
-3.3482e-05
-0.0158533
-0.0769084
0.0763753
0.0165637
-0.000177252
-0.00982684
-0.0759516
0.0754076
0.0106415
-0.000270737
-0.00408104
-0.0749401
0.074344
0.00499026
-0.000313087
0.00141774
-0.0738387
0.0733224
-0.000588459
-0.000313027
0.00687797
-0.0728038
0.0721802
-0.00591819
-0.000336158
0.0122514
-0.0716041
0.0709418
-0.0112633
-0.000325843
0.0176114
-0.0703085
0.0695805
-0.0165861
-0.000297269
0.0230019
-0.0688489
0.0680048
-0.021914
-0.000243864
0.0284482
-0.0671242
0.0661283
-0.0272721
-0.000180151
0.0339681
-0.0650692
0.0638739
-0.0326752
-9.75569e-05
0.03958
-0.0625765
0.0611728
-0.0381338
-4.24918e-05
0.0452668
-0.0596498
0.0579353
-0.0436293
7.70887e-05
0.0510284
-0.0560161
0.0540397
-0.0491436
9.15222e-05
0.0567583
-0.0518894
0.049403
-0.0545757
0.000303769
0.0624115
-0.0465089
0.0437607
-0.0598676
0.000204429
0.067667
-0.040886
0.0372848
-0.0647293
0.000663369
0.0724252
-0.0327418
0.0292084
-0.0690737
0.000181936
0.075995
0.0208021
-0.0723616
0.00147128
-0.0259067
0.0790134
0.0117283
-0.0752794
-0.00273179
-0.0127305
0.0789399
0.00507362
-0.0756123
0.00323475
-0.011636
-0.109456
0.0110083
0.105579
-0.00713172
-0.129118
-0.0256492
0.0414467
0.120869
-0.00754932
-0.106389
-0.053828
0.0613403
0.101654
-0.00277739
-0.0846241
-0.0669828
0.0699645
0.0820567
-0.000414288
-0.0682491
-0.0718058
0.0723401
0.0669726
0.000742078
-0.0555975
-0.0728615
0.072725
0.0550344
0.000699689
-0.0454863
-0.0726547
0.0723117
0.0453626
0.000466805
-0.0369615
-0.0722412
0.071917
0.0371092
0.000176547
-0.0294944
-0.0717613
0.0714425
0.0298281
-1.50074e-05
-0.0227393
-0.0712819
0.070956
0.0232023
-0.000137155
-0.0164797
-0.0707435
0.0703846
0.0170534
-0.000214854
-0.0105728
-0.070119
0.0697067
0.0112532
-0.000268134
-0.00491431
-0.0693576
0.0688617
0.00571269
-0.000302454
0.000458543
-0.068414
0.0679627
0.000308876
-0.000316112
0.00584882
-0.067484
0.0669015
-0.00492041
-0.000345889
0.0110729
-0.0663526
0.0657094
-0.0100931
-0.000336614
0.0162544
-0.0650821
0.0643556
-0.0152259
-0.000301931
0.0214309
-0.0636131
0.0627581
-0.0203368
-0.000239043
0.0266258
-0.0618543
0.0608424
-0.0254415
-0.000172468
0.0318473
-0.0597573
0.0585433
-0.0305434
-8.99345e-05
0.037099
-0.0572183
0.0558096
-0.0356422
-4.80386e-05
0.0423515
-0.0542801
0.052569
-0.0407086
6.81823e-05
0.0475872
-0.0506524
0.0487375
-0.0457129
4.06146e-05
0.0526928
-0.0466739
0.0442711
-0.050557
0.000266998
0.0576204
-0.0414659
0.0389507
-0.0551839
7.85776e-05
0.0620948
-0.0363894
0.0330404
-0.0593547
0.000608925
0.0660852
0.0257734
-0.0630567
-7.27287e-05
-0.0287292
0.0690918
0.0184302
-0.0658411
0.00145606
-0.0231371
0.0718734
0.0105983
-0.0685171
-0.00344355
-0.0105111
0.0722628
0.00485229
-0.0689476
0.00316102
-0.0113285
-0.098939
0.0116948
0.091105
-0.00386079
-0.112456
-0.0240671
0.0357185
0.104078
-0.00327354
-0.0960922
-0.0435128
0.0491935
0.0901377
0.000273771
-0.0788308
-0.0547382
0.0580329
0.0754353
0.000100815
-0.0651692
-0.0601295
0.0612289
0.0633377
0.000732079
-0.0539931
-0.0625708
0.063168
0.0530219
0.00037389
-0.0447398
-0.0637338
0.0639599
0.0442705
0.000243269
-0.0367256
-0.0644191
0.0645265
0.0365651
5.31668e-05
-0.0295892
-0.0647375
0.0647212
0.0296413
-3.58431e-05
-0.0230616
-0.0648429
0.0647396
0.0232764
-0.000111456
-0.0169816
-0.0647296
0.0645354
0.0173347
-0.000158816
-0.0112298
-0.0644231
0.0641345
0.0117127
-0.000194317
-0.00572015
-0.063902
0.0635066
0.00633584
-0.000220248
-0.000430691
-0.0631507
0.0626956
0.00112454
-0.000238709
0.00476658
-0.0622896
0.0617569
-0.00395828
-0.000275609
0.00985161
-0.0612446
0.0606281
-0.00893538
-0.000299703
0.0148649
-0.0600222
0.0593122
-0.0138524
-0.000302387
0.0198367
-0.0585814
0.0577353
-0.0187167
-0.000273862
0.0247815
-0.0568368
0.0558334
-0.0235378
-0.000240298
0.0296995
-0.0547559
0.0535507
-0.0283131
-0.000181225
0.0345888
-0.0522352
0.0508523
-0.0330362
-0.000169651
0.0394159
-0.0493553
0.0476843
-0.0376703
-7.45732e-05
0.0441551
-0.0458132
0.0439898
-0.0421917
-0.000140005
0.0487045
-0.0420477
0.0397569
-0.0464986
8.48799e-05
0.0530255
-0.0370667
0.0347955
-0.0505609
-0.000193346
0.0568809
0.0294161
-0.0541624
0.000406629
-0.0325412
0.0603067
0.0228545
-0.0573525
-0.000514953
-0.0252938
0.0628584
0.0163333
-0.0597311
0.0013189
-0.0207795
0.0653904
0.00955006
-0.0621448
-0.00433828
-0.0084574
0.0657218
0.00459597
-0.0625228
0.00322232
-0.0110172
-0.0832367
0.00855479
0.0759293
-0.00124739
-0.0960997
-0.0196804
0.0281441
0.0884434
-0.00080747
-0.0842081
-0.031937
0.0369046
0.0784182
0.000822328
-0.071849
-0.0431569
0.0469855
0.0682464
-0.000226073
-0.0611296
-0.0493405
0.0510273
0.0588508
0.000591991
-0.0516119
-0.053149
0.0543988
0.0501815
0.000180654
-0.0433225
-0.0554599
0.0561563
0.0424402
0.000185942
-0.0359048
-0.0570674
0.0575347
0.0353943
4.30941e-05
-0.0291721
-0.0580484
0.0582964
0.0289354
-1.12637e-05
-0.0229465
-0.0586648
0.0587607
0.022923
-7.24166e-05
-0.0171114
-0.0589306
0.0588888
0.0172693
-0.000116079
-0.011574
-0.0589185
0.0587477
0.0118956
-0.000150719
-0.00626542
-0.0586246
0.058321
0.00674718
-0.000178195
-0.00115331
-0.0580477
0.0576394
0.00176223
-0.000200578
0.00382009
-0.0573084
0.0568251
-0.00309993
-0.000236881
0.00868846
-0.0563552
0.0557746
-0.00783999
-0.000267859
0.0134615
-0.0552027
0.0545224
-0.012507
-0.00027417
0.0181677
-0.0538191
0.0529979
-0.0170992
-0.000247193
0.0228157
-0.0521232
0.0511473
-0.0216219
-0.000217926
0.0274004
-0.0500989
0.0489247
-0.0260672
-0.000159022
0.0319149
-0.0476432
0.0463118
-0.0304252
-0.000158343
0.0363213
-0.0448757
0.0432667
-0.034656
-5.62744e-05
0.0405972
-0.0414629
0.0397562
-0.038741
-0.000149532
0.044643
-0.0379553
0.0357857
-0.0425826
0.000109064
0.0484435
0.0311948
-0.0461706
-0.000245631
-0.033222
0.0517817
0.0262981
-0.0493059
0.000453426
-0.0292273
0.0547453
0.0203546
-0.0520824
-0.000682077
-0.0223353
0.0569392
0.0144804
-0.0541323
0.00144783
-0.0187352
0.059217
0.00861696
-0.0562993
-0.0049113
-0.0066233
0.0595042
0.00431007
-0.0565865
0.00344704
-0.0106749
-0.0693611
0.00562282
0.0635696
0.000168696
-0.0814323
-0.0155687
0.0218343
0.0749526
0.000214131
-0.0730489
-0.0227337
0.0277963
0.0679792
7.1676e-06
-0.0646729
-0.0345568
0.0383854
0.0611259
-0.000281556
-0.0563558
-0.0405289
0.0425043
0.0538348
0.000545578
-0.0484499
-0.0451348
0.0467704
0.0467065
0.000107815
-0.0412053
-0.0480882
0.0491039
0.0400141
0.00017539
-0.0345063
-0.0503455
0.05108
0.0337208
5.09928e-05
-0.0282942
-0.0518136
0.0522718
0.0278182
1.78787e-05
-0.0224698
-0.0528404
0.053104
0.022241
-3.47571e-05
-0.016963
-0.0534229
0.0535138
0.0169423
-7.02362e-05
-0.0117079
-0.0536676
0.0536045
0.0118736
-0.000102658
-0.0066544
-0.0535801
0.0533643
0.00699748
-0.000127281
-0.00177285
-0.0531701
0.0528097
0.00228149
-0.000148233
0.00296149
-0.0525632
0.0521193
-0.00233029
-0.000187241
0.00759214
-0.0516969
0.0511614
-0.00682689
-0.000229667
0.0121177
-0.0506313
0.0499914
-0.0112297
-0.00024814
0.0165578
-0.049326
0.0485429
-0.0155425
-0.000232227
0.0209147
-0.0477054
0.0467729
-0.0197663
-0.000215965
0.025179
-0.0457694
0.0446437
-0.0238896
-0.000163727
0.0293419
-0.043413
0.0421518
-0.0279009
-0.000179798
0.0333643
-0.0407932
0.039261
-0.0317603
-7.17234e-05
0.0372299
-0.0375396
0.0359637
-0.0354528
-0.000201165
0.040844
0.0322672
-0.0388885
8.81972e-05
-0.0343109
0.0442099
0.0280413
-0.0420738
-0.000349814
-0.0298275
0.0471278
0.0235807
-0.0448228
0.00045339
-0.026339
0.04972
0.018195
-0.0472623
-0.00090461
-0.0197481
0.0516121
0.012854
-0.0490344
0.00153587
-0.0169675
0.0536542
0.00781743
-0.0509766
-0.00550058
-0.00499441
0.0538424
0.0040563
-0.0511768
0.00366796
-0.0103899
-0.0584678
0.00383155
0.0539743
0.000661971
-0.06921
-0.0127493
0.0174139
0.0639857
0.000559713
-0.063408
-0.0162713
0.0216444
0.0591127
-0.00107786
-0.0577418
-0.0284537
0.0318581
0.0544173
-7.99294e-05
-0.0512691
-0.0335089
0.0355837
0.0487257
0.000468587
-0.0448157
-0.0384859
0.0402833
0.0429358
8.25318e-05
-0.0386016
-0.0416674
0.0428728
0.0372312
0.000164997
-0.0326708
-0.0443279
0.0452373
0.0317013
6.01705e-05
-0.0270395
-0.0461066
0.0467201
0.0263894
3.66392e-05
-0.0216761
-0.0474363
0.0478305
0.0212884
-6.59811e-06
-0.0165486
-0.0482619
0.0484632
0.0163843
-3.71133e-05
-0.0116207
-0.0487182
0.0487476
0.0116562
-6.48919e-05
-0.00686063
-0.0488078
0.0486748
0.00708419
-9.06355e-05
-0.00224351
-0.0485608
0.0482712
0.00264581
-0.000112669
0.0022278
-0.0480455
0.0476615
-0.00169238
-0.000151474
0.00659068
-0.0472967
0.0468137
-0.00591099
-0.000196655
0.01085
-0.0463302
0.0457376
-0.0100373
-0.000220135
0.015011
-0.0451164
0.0443805
-0.0140663
-0.000208773
0.0190725
-0.0435888
0.0427106
-0.0179944
-0.00019997
0.0230222
-0.0417621
0.0406967
-0.0218074
-0.000149397
0.0268503
-0.0395274
0.0383484
-0.0254932
-0.000178018
0.0305182
-0.037077
0.035632
-0.0290125
-6.06918e-05
0.0340141
0.0325616
-0.0323552
-0.000220989
-0.0339995
0.03725
0.029138
-0.0354377
0.000106933
-0.0310572
0.0402436
0.0252644
-0.0382793
-0.000411542
-0.0268171
0.0428092
0.0211949
-0.0407043
0.000503637
-0.0238034
0.0450951
0.0163216
-0.0428656
-0.00107779
-0.0174733
0.0467364
0.0114211
-0.0444051
0.00167383
-0.0154263
0.0485687
0.00712473
-0.0461464
-0.00599461
-0.00355238
0.048688
0.00381926
-0.0462748
0.00390067
-0.0101331
-0.0499989
0.00272087
0.046445
0.000832986
-0.0593978
-0.010873
0.0143817
0.0551963
0.000692815
-0.0552812
-0.0117912
0.0174777
0.0516576
-0.00206289
-0.0513307
-0.0240269
0.0268508
0.048324
0.000182754
-0.0462511
-0.027922
0.0300123
0.04382
0.000340848
-0.0410233
-0.0330213
0.0348259
0.0391339
8.48306e-05
-0.035746
-0.0361438
0.0374446
0.0343002
0.000145011
-0.0305649
-0.0390176
0.0400234
0.0294907
6.84914e-05
-0.0255275
-0.0409542
0.0416728
0.0247625
4.63793e-05
-0.0206516
-0.0424867
0.0429748
0.0201476
1.58397e-05
-0.0159328
-0.0434816
0.0437699
0.0156559
-1.14653e-05
-0.0113602
-0.0441014
0.0442078
0.0112877
-3.38249e-05
-0.00691923
-0.0443346
0.0442723
0.0070387
-5.71773e-05
-0.00259941
-0.0442228
0.0440023
0.00289987
-7.99474e-05
0.00159273
-0.0438084
0.0434867
-0.00115407
-0.000116917
0.00568919
-0.043173
0.0427419
-0.00509242
-0.000165625
0.00967743
-0.042304
0.0417626
-0.00894112
-0.000194897
0.0135609
-0.0411882
0.0405056
-0.0126892
-0.000189094
0.0173353
-0.0397642
0.0389482
-0.01633
-0.00018917
0.0209859
-0.0380602
0.0370631
-0.0198477
-0.00014116
0.024503
-0.0359606
0.0348716
-0.0232299
-0.000184148
0.027849
0.0323389
-0.0264393
-5.71201e-05
-0.0336915
0.0310173
0.0294996
-0.0294694
-0.00025084
-0.0307967
0.0339245
0.026341
-0.0322426
0.000116918
-0.0281397
0.036601
0.0228022
-0.0347882
-0.000485312
-0.0241298
0.0388703
0.0190846
-0.0369391
0.000544858
-0.0215606
0.0409031
0.0146857
-0.0388665
-0.00126587
-0.0154564
0.0423312
0.0101592
-0.0402104
0.00180047
-0.0140806
0.0439714
0.00652931
-0.0417636
-0.00646003
-0.00227714
0.0440308
0.00360808
-0.0418411
0.00411804
-0.00991579
-0.0432681
0.00195869
0.040379
0.000930449
-0.0514927
-0.00956263
0.0122393
0.0480517
0.000764255
-0.048438
-0.00860386
0.0145612
0.0453604
-0.00287976
-0.0455815
-0.0207078
0.0229299
0.0429008
0.000458678
-0.0415279
-0.0234349
0.025522
0.0392783
0.0001625
-0.0372888
-0.0285325
0.030248
0.0354672
0.000106143
-0.0328195
-0.0314173
0.0327536
0.0313723
0.000110954
-0.0283277
-0.0343737
0.035416
0.0272109
7.44915e-05
-0.0238604
-0.0363456
0.0371281
0.0230299
4.80014e-05
-0.0194683
-0.0379969
0.0385469
0.0188873
3.09133e-05
-0.0151645
-0.0390955
0.0394486
0.0148056
5.8744e-06
-0.0109578
-0.0398324
0.0400004
0.0108014
-1.16275e-05
-0.00684701
-0.0401762
0.0401746
0.00688153
-3.28245e-05
-0.00283189
-0.0401759
0.0400143
0.00304867
-5.51146e-05
0.00107069
-0.039861
0.0395963
-0.000717257
-8.87214e-05
0.00489168
-0.039328
0.0389484
-0.00437245
-0.000139646
0.00860573
-0.0385541
0.0380661
-0.00794528
-0.000172423
0.0122139
-0.0375386
0.036913
-0.011418
-0.000170418
0.0157091
-0.0362234
0.0354739
-0.0147817
-0.000177949
0.0190749
-0.0346484
0.0337243
-0.0180195
-0.000131439
0.0223017
0.0316957
-0.0211195
-0.000187424
-0.0326905
0.0253536
0.0293492
-0.0240459
-5.03036e-05
-0.0306066
0.0282287
0.0267379
-0.0267968
-0.000275501
-0.0278942
0.0308458
0.0238313
-0.029296
0.000133481
-0.0255146
0.0332477
0.0206084
-0.0315848
-0.000551681
-0.0217196
0.0352653
0.017211
-0.0335015
0.000592041
-0.0195668
0.0370827
0.013246
-0.0352299
-0.00143786
-0.0136609
0.0383332
0.00904289
-0.0364098
0.00192677
-0.0128931
0.0397902
0.00601314
-0.0377797
-0.00687496
-0.00114864
0.0398191
0.00341575
-0.0378352
0.00432419
-0.00972388
-0.0377755
0.0013939
0.0353711
0.00101055
-0.0450019
-0.00860124
0.0106584
0.0421268
0.00081799
-0.0426327
-0.00624787
0.0124338
0.0400002
-0.00355343
-0.0404833
-0.0181386
0.0198017
0.0381115
0.00070873
-0.0371985
-0.0197929
0.0218769
0.0351515
-3.70517e-05
-0.0337369
-0.0248247
0.0263981
0.0320229
0.000140673
-0.0299466
-0.0273752
0.0287136
0.0285451
6.31598e-05
-0.0260657
-0.03033
0.0313659
0.0249505
7.93711e-05
-0.0221237
-0.0322491
0.0330652
0.0212669
4.06987e-05
-0.0181927
-0.0339537
0.034539
0.0175675
3.99254e-05
-0.0142945
-0.0351004
0.0354994
0.0138804
1.51489e-05
-0.0104515
-0.0359138
0.0361293
0.0102325
3.55855e-06
-0.00667171
-0.0363372
0.0363868
0.0066383
-1.62307e-05
-0.00296314
-0.0364267
0.0363166
0.00310925
-3.61004e-05
0.000647809
-0.0361997
0.03599
-0.000371673
-6.64214e-05
0.00419441
-0.0357604
0.0354311
-0.00374631
-0.000118813
0.00763722
-0.0350766
0.0346427
-0.00704938
-0.000153998
0.0109772
-0.0341599
0.0335932
-0.0102554
-0.000154984
0.0142045
-0.032954
0.0322738
-0.0133544
-0.000169979
0.0173016
0.0306611
-0.0163285
-0.000124338
-0.0315098
0.0202592
0.0287954
-0.0191666
-0.00019395
-0.029694
0.0230426
0.0266321
-0.0218343
-4.58765e-05
-0.0277945
0.0256537
0.0242412
-0.0243336
-0.00030257
-0.0252588
0.0280167
0.0215718
-0.0265908
0.000147478
-0.0231451
0.0301809
0.0186478
-0.0286569
-0.000622239
-0.0195495
0.0319816
0.0155414
-0.0303699
0.000635323
-0.0177884
0.0336158
0.0119723
-0.0319278
-0.00160545
-0.0120549
0.0347193
0.00804584
-0.0329792
0.00205194
-0.0118379
0.0359835
0.00556164
-0.0341322
-0.00727082
-0.000142049
0.0360134
0.00324221
-0.0342112
0.00451084
-0.00955527
-0.0331959
0.000955898
0.0311588
0.00108126
-0.0395715
-0.00786868
0.00943654
0.0371328
0.000870891
-0.0376789
-0.00444174
0.0108253
0.0354257
-0.00413029
-0.0359924
-0.0160999
0.0172667
0.0339015
0.000924034
-0.0332865
-0.0168013
0.0188892
0.0314399
-0.000241208
-0.030431
-0.0217368
0.023143
0.0288451
0.000179697
-0.0272037
-0.0239087
0.0252328
0.0258727
6.90923e-06
-0.0238534
-0.0268133
0.0278152
0.0227707
8.08817e-05
-0.0203825
-0.0286234
0.0294509
0.0195293
2.57627e-05
-0.0168796
-0.0303312
0.0309309
0.0162369
4.2962e-05
-0.0133658
-0.0314819
0.0319115
0.0129196
1.66812e-05
-0.00987379
-0.0323376
0.0325885
0.00961148
1.14046e-05
-0.00641709
-0.0328135
0.032906
0.00633163
-7.11416e-06
-0.00300971
-0.0329726
0.0329094
0.00309798
-2.50836e-05
0.000314899
-0.0328186
0.0326644
-0.000108641
-5.2029e-05
0.00359101
-0.0324635
0.0321834
-0.00320701
-0.000103915
0.00676907
-0.0318641
0.0314843
-0.00624922
-0.000140043
0.00984996
-0.0310426
0.0305352
-0.00919923
-0.000143379
0.0128216
0.0293333
-0.0120467
-0.00016475
-0.0299434
0.0156657
0.0278547
-0.0147733
-0.000119817
-0.0286273
0.0183735
0.0261486
-0.017369
-0.000202056
-0.026951
0.0209117
0.0241601
-0.0198002
-4.19978e-05
-0.0252296
0.0232858
0.0219813
-0.0220732
-0.000331373
-0.0228626
0.0254226
0.0195339
-0.0241153
0.000161133
-0.0210023
0.0273789
0.0168944
-0.0259847
-0.000695723
-0.0175929
0.028991
0.0140426
-0.0275191
0.000682854
-0.0161973
0.0304661
0.0108339
-0.0289267
-0.00176644
-0.0106068
0.0314555
0.00710085
-0.0298634
0.00219792
-0.0108908
0.0324903
0.00521491
-0.0308047
-0.00764384
0.000743295
0.0325678
0.00308802
-0.030928
0.00467321
-0.0094011
-0.0293162
0.000608634
0.0275664
0.00114113
-0.0349694
-0.00728882
0.00844715
0.0328789
0.000932166
-0.0334614
-0.00303755
0.00957775
0.0315381
-0.00461698
-0.0320502
-0.0144401
0.0151764
0.0302084
0.00110548
-0.0297774
-0.0143092
0.0164151
0.0281186
-0.000447114
-0.0273988
-0.0191443
0.0203756
0.0259452
0.000222264
-0.0246331
-0.020924
0.0222313
0.0233891
-6.32419e-05
-0.0217379
-0.0237516
0.0247018
0.0207041
8.35423e-05
-0.0186838
-0.0254173
0.0262447
0.0178515
4.92893e-06
-0.0155704
-0.0270984
0.0276983
0.0149291
4.14727e-05
-0.0124139
-0.0282178
0.0286659
0.0119533
1.25409e-05
-0.00925325
-0.0290889
0.0293655
0.00896349
1.31081e-05
-0.00610554
-0.0295943
0.0297226
0.00598207
-4.87729e-06
-0.00298875
-0.029806
0.0297867
0.00302899
-2.10191e-05
4.84889e-05
-0.0297153
0.029605
0.000107847
-4.60433e-05
0.00307305
-0.0294265
0.029196
-0.00274759
-9.49324e-05
0.00599576
-0.0289071
0.0285808
-0.0055382
-0.00013127
0.00882862
0.0277267
-0.00824454
-0.000135784
-0.028175
0.0115582
0.0266373
-0.0108548
-0.000163565
-0.027177
0.0141651
0.0252873
-0.0133506
-0.000117325
-0.0259845
0.0166424
0.0237333
-0.0157228
-0.000212705
-0.0244402
0.0189569
0.0219114
-0.0179389
-3.89899e-05
-0.0228905
0.0211183
0.0199351
-0.0200079
-0.000364205
-0.0206813
0.0230532
0.0176974
-0.0218563
0.000171522
-0.0190659
0.0248259
0.0153226
-0.023551
-0.000771099
-0.0158264
0.0262689
0.0126923
-0.0249238
0.000732545
-0.0147699
0.0276023
0.00981454
-0.0261968
-0.00192553
-0.00929448
0.0284735
0.0062392
-0.0270165
0.00234411
-0.0100403
0.0293301
0.00492407
-0.0278023
-0.00796969
0.0015178
0.0294484
0.00294904
-0.0279539
0.00481172
-0.00925525
-0.0259879
0.000331925
0.0244665
0.00118949
-0.0310221
-0.00680435
0.00761034
0.0291955
0.00102056
-0.0298436
-0.00198842
0.00857632
0.0281268
-0.0048711
-0.0285839
-0.0130341
0.0134175
0.0269475
0.00125311
-0.0266413
-0.0122014
0.0143448
0.0251524
-0.000654521
-0.0246397
-0.01695
0.0180083
0.0233145
0.000266898
-0.0222539
-0.0183431
0.0196333
0.0211027
-0.000139106
-0.0197446
-0.0210817
0.02197
0.0187709
8.54542e-05
-0.0170578
-0.0225791
0.0234032
0.0162597
-2.60588e-05
-0.0142947
-0.0242157
0.0248078
0.0136683
3.4247e-05
-0.0114639
-0.0252826
0.0257432
0.0110011
2.17213e-06
-0.00861282
-0.0261502
0.0264445
0.00830907
9.48087e-06
-0.00575634
-0.026666
0.0268234
0.00560768
-8.73468e-06
-0.00291775
-0.0269129
0.0269338
0.00292037
-2.35749e-05
-0.000124405
-0.026881
0.0267971
0.000258734
-5.03791e-05
0.00262911
-0.0266412
0.0264594
-0.00235506
-9.23091e-05
0.00531028
0.02592
-0.00490845
-0.000127941
-0.0261939
0.00790839
0.025154
-0.00738563
-0.000133244
-0.0255435
0.01041
0.0241702
-0.00977449
-0.000165299
-0.0246404
0.0127968
0.0229407
-0.0120563
-0.000118153
-0.0235632
0.0150621
0.021533
-0.0142232
-0.000226771
-0.0221451
0.0171719
0.0198681
-0.0162419
-4.02275e-05
-0.0207579
0.0191405
0.0180879
-0.0181247
-0.000402745
-0.018701
0.0208932
0.0160398
-0.0197988
0.000181803
-0.017316
0.0224994
0.0139072
-0.0213326
-0.00084582
-0.0142282
0.0237915
0.0114716
-0.0225631
0.000781137
-0.0134811
0.0249987
0.0089041
-0.0237165
-0.00208196
-0.00810432
0.0257601
0.00547037
-0.0244325
0.00247673
-0.00927473
0.0264785
0.00465954
-0.0250918
-0.00823638
0.00219013
0.0266247
0.00282067
-0.0252617
0.00493167
-0.00911534
-0.0230996
0.000111335
0.0217604
0.0012279
-0.0275796
-0.00639867
0.00688508
0.0259727
0.00112049
-0.0266078
-0.00118024
0.00775048
0.0250648
-0.00502726
-0.0255143
-0.0118363
0.011925
0.0240567
0.00136893
-0.0238406
-0.0104033
0.0125961
0.0225049
-0.000857008
-0.0221423
-0.0150775
0.0159727
0.0209384
0.000308669
-0.0200708
-0.0161052
0.0173814
0.0190116
-0.000216971
-0.017887
-0.0187479
0.0195708
0.0169797
8.44374e-05
-0.0155219
-0.0200678
0.0208843
0.0147656
-6.02642e-05
-0.0130694
-0.0216449
0.0222239
0.0124657
2.46416e-05
-0.0105388
-0.0226435
0.023115
0.0100839
-1.6622e-05
-0.00797103
-0.0234982
0.0238076
0.00766214
-4.98869e-07
-0.00538527
-0.0240085
0.024193
0.00522072
-2.00173e-05
-0.0028068
-0.0242803
0.024335
0.00278318
-3.1093e-05
-0.000257228
-0.0242891
0.0242418
0.000361401
-5.68721e-05
0.0022537
0.023961
-0.00202375
-9.3892e-05
-0.0240971
0.00470619
0.0234886
-0.00435511
-0.000128854
-0.0237108
0.00708343
0.022803
-0.00661827
-0.000133766
-0.0231344
0.00937268
0.0219184
-0.00880055
-0.000172094
-0.0223184
0.0115547
0.0208039
-0.0108841
-0.000122326
-0.0213521
0.0136248
0.0195332
-0.0128612
-0.000246098
-0.0200506
0.0155471
0.0180189
-0.0146994
-4.46487e-05
-0.018822
0.0173391
0.0164166
-0.0164114
-0.000441366
-0.016903
0.0189265
0.0145417
-0.0179242
0.000188757
-0.0157328
0.0203804
0.0126269
-0.019314
-0.000917395
-0.0127759
0.021539
0.0103675
-0.0204173
0.000827252
-0.0123164
0.0226336
0.00808683
-0.0214632
-0.00223627
-0.00702092
0.0232987
0.00477756
-0.0220891
0.00259667
-0.00858386
0.0239048
0.00441764
-0.0226445
-0.00845509
0.00277715
0.0240699
0.00270286
-0.0228256
0.00503558
-0.00898276
-0.0205673
-9.09762e-05
0.019389
0.00126931
-0.0245676
-0.00607413
0.00626966
0.0231582
0.00121388
-0.0237209
-0.000518253
0.00704605
0.0223481
-0.00515499
-0.0227921
-0.0108145
0.0106478
0.0214934
0.00146538
-0.0213425
-0.00885886
0.0111072
0.0201441
-0.00104996
-0.0198886
-0.0134679
0.0142105
0.018798
0.000348012
-0.0180806
-0.014153
0.0154218
0.0171127
-0.000300896
-0.0161732
-0.0167064
0.0174654
0.0153347
7.94657e-05
-0.0140853
-0.0178454
0.0186538
0.013376
-9.91025e-05
-0.0119121
-0.0193562
0.0199188
0.0113354
1.40217e-05
-0.00964902
-0.0202769
0.0207566
0.00920676
-3.7432e-05
-0.00734227
-0.0211034
0.0214279
0.00703301
-1.53032e-05
-0.00500765
-0.0216014
0.0218133
0.00483036
-3.46129e-05
-0.00266858
-0.0218871
0.0219768
0.00262264
-4.3762e-05
-0.000348345
0.0219174
0.0004248
-6.77702e-05
-0.0219261
0.00193816
0.0216861
-0.00174546
-0.000100883
-0.0217779
0.00417647
0.0212736
-0.0038703
-0.000135087
-0.0214447
0.00634818
0.0206622
-0.00593437
-0.000140489
-0.0209355
0.00843942
0.0198697
-0.00792482
-0.000182891
-0.0202014
0.0104321
0.0188628
-0.00982523
-0.000132244
-0.0193374
0.0123208
0.0177212
-0.0116273
-0.0002675
-0.0181472
0.0140704
0.0163403
-0.0132973
-5.14173e-05
-0.017062
0.0157002
0.0149061
-0.0148505
-0.000485209
-0.0152706
0.0171341
0.0131777
-0.0162176
0.000199837
-0.014294
0.0184524
0.0114709
-0.0174781
-0.000992014
-0.0114532
0.0194921
0.00936701
-0.0184681
0.000871327
-0.0112624
0.0204853
0.00735262
-0.0194177
-0.00238509
-0.00603508
0.0210678
0.00415244
-0.0199665
0.00270449
-0.00795826
0.0215813
0.00419621
-0.0204364
-0.00862657
0.00328544
0.0217599
0.0025952
-0.0206235
0.0051266
-0.00885814
-0.0183571
-0.000272569
0.0173171
0.00131256
-0.021931
-0.00579894
0.00576847
0.0206793
0.00128213
-0.0211691
4.5122e-05
0.00641496
0.0199534
-0.0052444
-0.0203787
-0.0099342
0.00954323
0.0192206
0.00154912
-0.0191141
-0.0075221
0.0098311
0.0180392
-0.00123404
-0.0178619
-0.0120767
0.0126784
0.0168755
0.000384634
-0.0162744
-0.0124442
0.0137102
0.0153912
-0.000382789
-0.0146032
-0.0149116
0.0156105
0.0138326
7.17468e-05
-0.0127547
-0.0158776
0.0166803
0.0120956
-0.000143588
-0.010824
-0.0173195
0.0178651
0.0102799
-1.5031e-06
-0.00880246
-0.0181573
0.018644
0.00837909
-6.33339e-05
-0.00673154
-0.0189494
0.0192867
0.00642769
-3.34616e-05
-0.00462626
-0.0194261
0.0196629
0.00444264
-5.31618e-05
-0.00251008
0.0198403
0.00244665
-5.99328e-05
-0.0197169
-0.000402862
0.0198103
0.000454579
-8.32772e-05
-0.0197788
0.00167701
0.0196187
-0.00151689
-0.000112363
-0.0196664
0.00371572
0.0192598
-0.00344874
-0.00014514
-0.0193816
0.00569503
0.0187166
-0.00532755
-0.000149229
-0.0189349
0.00760413
0.0180082
-0.00714185
-0.000196611
-0.0182739
0.00941835
0.0171
-0.0088696
-0.000142821
-0.017506
0.0111382
0.0160747
-0.0105066
-0.000293194
-0.0164131
0.0127273
0.014819
-0.0120216
-6.12232e-05
-0.0154636
0.0142058
0.0135283
-0.0134305
-0.000522868
-0.0137808
0.0155037
0.0119416
-0.0146668
0.000206336
-0.0129848
0.0167003
0.0104255
-0.0158108
-0.00106674
-0.0102483
0.0176332
0.00846003
-0.0166992
0.00091532
-0.0103094
0.0185356
0.00669049
-0.0175611
-0.00253029
-0.00513465
0.0190481
0.00358662
-0.0180456
0.00280224
-0.00739135
0.0194871
0.00399112
-0.0184471
-0.00875406
0.00372302
0.0196732
0.00249486
-0.0186346
0.0052058
-0.00873926
-0.0164105
-0.000416874
0.0154828
0.00134458
-0.019597
-0.00556186
0.0053459
0.0184807
0.0013323
-0.0189286
0.000513118
0.0058643
0.0178535
-0.00530227
-0.0182375
-0.00917249
0.00858413
0.0172031
0.00162273
-0.0171275
-0.00635931
0.0087314
0.0161618
-0.00140637
-0.0160413
-0.0108667
0.0113394
0.0151497
0.000418946
-0.0146416
-0.0109414
0.0122103
0.0138386
-0.000465856
-0.0131729
-0.0133309
0.0139722
0.012466
6.54987e-05
-0.0115321
-0.0141283
0.0149274