/*--------------------------------*- C++ -*----------------------------------*\
  =========                 |
  \\      /  F ield         | OpenFOAM: The Open Source CFD Toolbox
   \\    /   O peration     | Website:  https://openfoam.org
    \\  /    A nd           | Version:  10
     \\/     M anipulation  |
\*---------------------------------------------------------------------------*/
FoamFile
{
    format      ascii;
    class       surfaceScalarField;
    location    "0.05";
    object      phi_0;
}
// * * * * * * * * * * * * * * * * * * * * * * * * * * * * * * * * * * * * * //

dimensions      [0 3 -1 0 0 0 0];

internalField   nonuniform List<scalar> 
343762
(
0.0133303
-0.0373773
0.00296169
0.0024863
-0.0102454
0.0667512
-0.00242986
0.00514012
0.00177885
0.0613892
-0.00719232
-0.0118582
0.0214869
0.0482143
-0.00854664
-0.0306175
0.0388739
0.0369206
-0.00847797
-0.0460256
0.0520665
0.028452
-0.00794698
-0.0569739
0.060876
0.02244
-0.00719337
-0.0638708
0.0661318
0.0180479
-0.00635263
-0.0677827
0.0689849
0.0144653
-0.0055016
-0.0698325
0.0704415
0.011112
-0.00465346
-0.0708595
0.0711584
0.00767213
-0.00378732
-0.071349
0.0714732
0.00398015
-0.00286904
-0.071533
0.0717187
-0.000300084
-0.00182069
-0.0717658
0.0718011
-0.00450826
-0.000935328
-0.0717529
0.0716642
-0.00916362
-0.00011916
-0.0714581
0.0711832
-0.0139929
0.000681789
-0.0707984
0.0703684
-0.0188058
0.00131614
-0.0698464
0.069302
-0.0235577
0.00183429
-0.0686741
0.0680339
-0.0282943
0.00229646
-0.067302
0.0665486
-0.0331083
0.00275136
-0.0656786
0.0647723
-0.0381102
0.0032253
-0.0637173
0.0625884
-0.043389
0.00373838
-0.0612537
0.0598205
-0.049046
0.00429016
-0.0581375
0.0562578
-0.0551111
0.00489385
-0.0539831
0.051499
-0.0616634
0.0055348
-0.0486211
0.0452499
-0.0685176
0.00620611
-0.0409902
0.0363939
-0.0756425
0.00693251
-0.0312883
0.0247628
-0.0819302
0.00762047
-0.0152914
0.00780496
-0.0869406
0.00652067
-0.0013188
-0.00436472
-0.0776153
0.0094863
-0.0167495
-0.0124303
0.0546871
-0.0255072
-0.103838
0.00378017
0.00703288
0.126528
-0.0335031
-0.0842612
-0.0227463
0.0347884
0.0987785
-0.0265594
-0.0656397
-0.045933
0.0558954
0.0771735
-0.0214962
-0.0516375
-0.0644871
0.0714308
0.061542
-0.0168481
-0.0415526
-0.0769952
0.0810842
0.0502895
-0.0128259
-0.0342606
-0.084093
0.0860989
0.0418195
-0.00956492
-0.028471
-0.0874583
0.0882303
0.0347213
-0.00702227
-0.02329
-0.0886646
0.0887949
0.0281985
-0.00503879
-0.0182516
-0.0887661
0.0885722
0.0219216
-0.00347612
-0.0131724
-0.0882965
0.0879151
0.0157962
-0.00224238
-0.00798777
-0.0874763
0.0869481
0.00980653
-0.00129053
-0.00270897
-0.0863593
0.0856975
0.00394206
-0.000571321
0.00250665
-0.0851774
0.0845868
-0.00183701
-7.90011e-05
0.00784005
-0.0839838
0.0833591
-0.00739369
0.000178331
0.0130888
-0.0827357
0.0821198
-0.0128731
0.000400292
0.0182468
-0.081492
0.0808585
-0.0182902
0.00067698
0.0233771
-0.0801824
0.0794747
-0.0237058
0.00103637
0.0285703
-0.0786939
0.0778652
-0.029199
0.00145731
0.033907
-0.0769363
0.0759338
-0.0348352
0.00193063
0.0394695
-0.0747956
0.0735793
-0.040669
0.00241576
0.0453118
-0.0721948
0.0706749
-0.046731
0.00293906
0.0515052
-0.0689116
0.0670356
-0.0530579
0.00342875
0.0580258
-0.0648839
0.0624493
-0.0596033
0.00401204
0.0649168
-0.0595419
0.0565112
-0.0663462
0.00446001
0.0718897
-0.0530751
0.0490025
-0.0729971
0.00517998
0.0788908
-0.043903
0.0389578
-0.0793597
0.00541418
0.0846768
-0.0336289
0.0268091
-0.0844377
0.00658067
0.0889473
-0.0172581
0.0126323
-0.0880141
0.00369267
0.0828215
0.00217989
-0.0852487
0.00952623
-0.00927899
-0.0785266
-0.000600017
0.0946226
-0.015496
-0.138807
-0.0146983
0.0307386
0.142737
-0.0199708
-0.107147
-0.0459028
0.0560925
0.110836
-0.0138784
-0.0834818
-0.0652194
0.0720596
0.0865492
-0.00990765
-0.0666475
-0.0776967
0.081319
0.0693433
-0.00631809
-0.0543399
-0.0839871
0.0852994
0.05651
-0.00348232
-0.0447265
-0.0860847
0.0861435
0.0462606
-0.00159283
-0.0364921
-0.0860861
0.0856414
0.0374985
-0.000561795
-0.0290003
-0.0852422
0.0846373
0.0297103
-0.000105145
-0.0220013
-0.0841448
0.083505
0.0226303
1.07481e-05
-0.0154143
-0.082983
0.0823382
0.0161122
-5.30228e-05
-0.00918597
-0.0818032
0.0811461
0.0100328
-0.000189709
-0.00327761
-0.0805808
0.079892
0.00428622
-0.000319861
0.00228042
-0.0793654
0.0787757
-0.00132035
-0.000370334
0.00769686
-0.0782502
0.0776132
-0.00671461
-0.00034521
0.0129733
-0.0770491
0.0763917
-0.0121149
-0.000201015
0.0182347
-0.0757887
0.0750898
-0.0175276
-8.19378e-06
0.0235558
-0.0744103
0.0736036
-0.0229946
0.000245484
0.0290027
-0.0727899
0.0718406
-0.0285416
0.000488352
0.0346091
-0.070859
0.0697199
-0.034197
0.000726918
0.0404056
-0.0685092
0.0671537
-0.0399837
0.000933657
0.0463954
-0.0656983
0.0640331
-0.0458968
0.00116659
0.052591
-0.0621884
0.0602068
-0.0519387
0.00132933
0.0589138
-0.0580423
0.0555285
-0.0580217
0.00162179
0.0653173
-0.0526172
0.0496715
-0.064093
0.00172141
0.0714885
-0.0465024
0.0426364
-0.0698417
0.00221925
0.0772307
-0.0378466
0.0336253
-0.0751066
0.0020972
0.0816779
-0.0294038
0.0236421
-0.079113
0.0031968
0.0849072
0.0127423
-0.0822944
-0.000166553
-0.0151884
0.0839145
0.00465179
-0.0819846
0.00471534
-0.0112971
-0.104874
0.00606089
0.109646
-0.0108331
-0.140999
-0.0232176
0.041374
0.13555
-0.0127076
-0.111286
-0.0563134
0.0654428
0.109454
-0.00729764
-0.0871592
-0.0723966
0.0764835
0.0864439
-0.00337174
-0.0698203
-0.0792849
0.080408
0.0695397
-0.000842432
-0.0566977
-0.0811025
0.0809257
0.0565894
0.000285198
-0.0462161
-0.0806823
0.0800729
0.0462644
0.000561108
-0.0373552
-0.0796627
0.0790378
0.0375767
0.00040333
-0.0295896
-0.0785956
0.0780184
0.0299931
0.000173767
-0.02259
-0.0776208
0.0770982
0.0231568
-4.41345e-05
-0.016155
-0.0767055
0.0761977
0.0168452
-0.000182387
-0.0101185
-0.0757969
0.0752742
0.0109112
-0.000270075
-0.00435965
-0.0748259
0.0742466
0.00524824
-0.000309286
0.00115268
-0.0737427
0.0732566
-0.000361739
-0.000304833
0.00662639
-0.0727422
0.0721304
-0.00568261
-0.000331951
0.0120138
-0.0715664
0.0709167
-0.0110395
-0.000324646
0.0173875
-0.0702958
0.0695804
-0.0163737
-0.000298354
0.022792
-0.0688608
0.0680291
-0.0217141
-0.000246227
0.028253
-0.0671601
0.066176
-0.0270859
-0.000182892
0.0337888
-0.0651279
0.063944
-0.0325044
-0.00010059
0.0394188
-0.0626576
0.0612649
-0.0379807
-4.53852e-05
0.0451271
-0.0597516
0.0580477
-0.0434968
7.36203e-05
0.0509144
-0.0561383
0.0541731
-0.0490356
8.62652e-05
0.0566744
-0.0520301
0.0495499
-0.0544964
0.000302215
0.0623651
-0.0466607
0.0439227
-0.0598225
0.000195468
0.0676622
-0.0410509
0.0374438
-0.0647219
0.000666769
0.0724697
-0.0328911
0.029369
-0.0691086
0.000161013
0.0760837
0.0209308
-0.0724348
0.00148362
-0.0260634
0.0791453
0.0118548
-0.0753876
-0.00279517
-0.0128173
0.0790886
0.00508053
-0.0757356
0.00329002
-0.0117236
-0.109422
0.0113444
0.105035
-0.0069576
-0.128225
-0.0256996
0.0412681
0.119903
-0.00724648
-0.10591
-0.0533019
0.0606211
0.101051
-0.00246
-0.0844677
-0.066193
0.0691546
0.0818061
-0.00030002
-0.0683155
-0.0709765
0.0715467
0.0669751
0.000770264
-0.055784
-0.0721359
0.0720733
0.0551741
0.000672428
-0.0457347
-0.0720721
0.0717965
0.0455721
0.000438149
-0.0372354
-0.0717888
0.0715191
0.0373489
0.000156263
-0.0297757
-0.0714096
0.0711315
0.0300773
-2.34859e-05
-0.0230173
-0.071007
0.0707128
0.0234517
-0.000140134
-0.0167506
-0.0705282
0.0701945
0.0172976
-0.00021338
-0.0108349
-0.0699513
0.0695603
0.0114897
-0.000263696
-0.00516671
-0.069231
0.0687554
0.00593899
-0.00029667
0.000210135
-0.0683198
0.0678722
0.000544928
-0.000307507
0.00561974
-0.067406
0.0668388
-0.00471211
-0.000340413
0.0108571
-0.0663027
0.0656722
-0.00989211
-0.000334461
0.0160515
-0.0650569
0.0643426
-0.0150346
-0.000302654
0.0212411
-0.0636115
0.0627683
-0.0201562
-0.000241766
0.0264498
-0.0618755
0.0608747
-0.025273
-0.000176068
0.0316862
-0.0597994
0.0585961
-0.0303887
-9.41661e-05
0.0369547
-0.0572809
0.0558819
-0.0355035
-5.22441e-05
0.0422267
-0.05436
0.052658
-0.0405881
6.33596e-05
0.0474855
-0.0507493
0.0488445
-0.0456135
3.28546e-05
0.0526172
-0.0467855
0.0443865
-0.050483
0.000264669
0.0575759
-0.0415842
0.0390783
-0.0551385
6.84936e-05
0.0620837
-0.0365176
0.033161
-0.0593396
0.000612578
0.0661111
0.025898
-0.0630748
-9.46527e-05
-0.0288397
0.0691497
0.018526
-0.0658864
0.00146925
-0.0232586
0.0719597
0.0107072
-0.0685859
-0.00351202
-0.0105691
0.0723628
0.0048503
-0.0690286
0.0032168
-0.0114013
-0.0980815
0.0116016
0.090141
-0.00366107
-0.111462
-0.0238614
0.0352573
0.103085
-0.00301891
-0.0953981
-0.042663
0.0482338
0.0894137
0.000413654
-0.0785242
-0.0538245
0.057165
0.0750956
8.8103e-05
-0.0651238
-0.0592853
0.0604499
0.0632441
0.000715057
-0.0540908
-0.0618761
0.0625526
0.0530703
0.000344099
-0.0449122
-0.063182
0.0634699
0.0443969
0.000227376
-0.0369337
-0.0639847
0.0641405
0.0367328
4.50938e-05
-0.0298125
-0.064392
0.0644132
0.0298296
-3.82608e-05
-0.02329
-0.0645674
0.0644936
0.0234741
-0.000110319
-0.0172093
-0.0645094
0.0643393
0.0175352
-0.000155758
-0.0114538
-0.0642481
0.0639797
0.0119119
-0.000189646
-0.00593881
-0.0637651
0.0633871
0.00653142
-0.000214599
-0.00063615
-0.0630459
0.0625982
0.00131731
-0.000233453
0.0045633
-0.062208
0.0616883
-0.00377365
-0.00027003
0.0096589
-0.0611867
0.0605818
-0.00875671
-0.000297356
0.0146823
-0.059987
0.0592888
-0.0136818
-0.000302232
0.0196651
-0.0585686
0.0577338
-0.0185551
-0.000275192
0.024622
-0.0568453
0.0558522
-0.0233869
-0.000242069
0.0295534
-0.0547834
0.0535881
-0.0281745
-0.000183623
0.0344578
-0.0522813
0.0509073
-0.0329119
-0.000171949
0.0393022
-0.0494163
0.047753
-0.0375624
-7.64377e-05
0.0440613
-0.0458889
0.0440735
-0.0421025
-0.000143353
0.0486336
-0.042134
0.039846
-0.0464307
8.50944e-05
0.0529804
-0.0371576
0.0348952
-0.0505166
-0.000201431
0.0568629
0.0295062
-0.0541424
0.000413195
-0.0326399
0.0603174
0.0229531
-0.0573576
-0.000538703
-0.0253742
0.0628924
0.0164051
-0.0597564
0.00133366
-0.0208748
0.0654435
0.00964647
-0.0621853
-0.00440931
-0.00849533
0.065786
0.00458646
-0.0625733
0.0032784
-0.0110776
-0.0822962
0.00831601
0.075073
-0.00109277
-0.0951346
-0.0193862
0.0276725
0.0875358
-0.000687429
-0.0834996
-0.0311616
0.0361353
0.0777515
0.000774378
-0.0715029
-0.0424599
0.0463035
0.067895
-0.000235687
-0.0609988
-0.0486461
0.0503786
0.058687
0.000579262
-0.0516195
-0.0525673
0.0538712
0.0501501
0.000165505
-0.0434114
-0.0549723
0.0557158
0.0424903
0.000177575
-0.036041
-0.0566701
0.0571761
0.0354954
3.96436e-05
-0.0293349
-0.0577222
0.0580024
0.0290669
-1.21992e-05
-0.0231241
-0.0583984
0.0585206
0.0230727
-7.07759e-05
-0.0172963
-0.0587132
0.0586936
0.0174289
-0.000112958
-0.0117615
-0.0587423
0.0585905
0.0120596
-0.000146344
-0.00645213
-0.058484
0.0581969
0.00691219
-0.000173017
-0.00133493
-0.0579369
0.0575377
0.00192926
-0.000195135
0.00364169
-0.057223
0.0567498
-0.00293658
-0.00023188
0.00851826
-0.0562898
0.0557207
-0.00768353
-0.000265654
0.0132995
-0.0551593
0.0544902
-0.0123565
-0.000274038
0.0180152
-0.0537965
0.052986
-0.016956
-0.000248735
0.0226738
-0.0521204
0.0511542
-0.0214876
-0.000220059
0.0272704
-0.0501132
0.0489484
-0.0259435
-0.000162091
0.0317983
-0.0476745
0.0463514
-0.0303138
-0.000161308
0.0362198
-0.0449198
0.0433179
-0.0345589
-5.89947e-05
0.040513
-0.0415197
0.0398203
-0.0386598
-0.000153942
0.0445781
-0.0380203
0.0358531
-0.0425191
0.000108284
0.0483999
0.0312725
-0.0461265
-0.000255363
-0.0332905
0.0517592
0.0263649
-0.0492809
0.000459324
-0.0293026
0.0547444
0.0204337
-0.0520765
-0.000708377
-0.0223933
0.0569556
0.0145352
-0.0541414
0.00146129
-0.0188107
0.0592453
0.00870491
-0.056318
-0.00498412
-0.00664813
0.0595421
0.00429479
-0.0566138
0.00350211
-0.0107252
-0.068611
0.00545788
0.062922
0.000231065
-0.0806058
-0.0153611
0.021497
0.0742209
0.000248936
-0.0724434
-0.0221735
0.0272935
0.0674363
-0.000112993
-0.0643266
-0.0340869
0.0378838
0.0607888
-0.000259079
-0.0561717
-0.0399855
0.0419919
0.0536366
0.000528719
-0.0483909
-0.0446672
0.0463335
0.0466236
0.000100931
-0.041227
-0.0476712
0.0487214
0.0400086
0.000168215
-0.0345818
-0.0499941
0.0507575
0.0337693
4.90506e-05
-0.0284038
-0.0515152
0.0520001
0.0279022
1.66525e-05
-0.0226012
-0.0525907
0.0528768
0.0223485
-3.33904e-05
-0.0171077
-0.0532147
0.0533253
0.0170647
-6.76606e-05
-0.0118601
-0.0534953
0.0534496
0.0120049
-9.90102e-05
-0.00680984
-0.05344
0.0532401
0.00713285
-0.000123156
-0.00192401
-0.0530597
0.0527115
0.00241635
-0.000144111
0.00281229
-0.0524706
0.052038
-0.00219613
-0.00018356
0.00744382
-0.0516263
0.0511025
-0.00669213
-0.000227888
0.0119753
-0.050582
0.0499529
-0.0110982
-0.000247989
0.0164229
-0.0492958
0.0485229
-0.0154164
-0.000233558
0.0207884
-0.0476933
0.0467699
-0.0196473
-0.00021767
0.0250628
-0.0457726
0.0446558
-0.0237796
-0.000166449
0.0292371
-0.0434317
0.0421781
-0.0278013
-0.000182203
0.0332726
-0.0408227
0.0392972
-0.0316728
-7.42226e-05
0.0371527
-0.0375807
0.0360117
-0.0353787
-0.000205075
0.0407829
0.0323167
-0.0388291
8.78507e-05
-0.0343583
0.0441658
0.0281016
-0.04203
-0.000359504
-0.0298779
0.0471007
0.0236295
-0.0447943
0.000459749
-0.0263955
0.0497094
0.0182594
-0.0472483
-0.000931459
-0.0197891
0.0516144
0.0128963
-0.0490318
0.00154843
-0.0170273
0.0536638
0.00789925
-0.0509794
-0.00557318
-0.00501045
0.0538606
0.0040363
-0.0511872
0.00372182
-0.0104315
-0.0579137
0.00373307
0.0534998
0.000680867
-0.068571
-0.0126287
0.0172001
0.063433
0.000566559
-0.0629247
-0.0158947
0.0213324
0.0586844
-0.00119736
-0.05742
-0.028136
0.0314861
0.0541109
-4.09683e-05
-0.0510664
-0.0330873
0.0351876
0.0485228
0.000443147
-0.0447183
-0.0381167
0.0399278
0.0428267
8.05253e-05
-0.0385778
-0.0413182
0.0425488
0.0371901
0.000157176
-0.0327008
-0.0440242
0.0449543
0.0317118
5.89386e-05
-0.0271066
-0.0458402
0.0464752
0.0264366
3.50012e-05
-0.0217689
-0.0472077
0.0476206
0.0213617
-5.69434e-06
-0.0166586
-0.0480671
0.0482856
0.0164754
-3.53138e-05
-0.0117421
-0.0485538
0.0485986
0.0117592
-6.18615e-05
-0.00698879
-0.048671
0.0485525
0.00719478
-8.74203e-05
-0.0023769
-0.0484502
0.0481757
0.00276083
-0.000109476
0.00209424
-0.0479503
0.0475804
-0.00157595
-0.000148356
0.00646208
-0.047225
0.0467527
-0.00579461
-0.000195147
0.010726
-0.0462771
0.0456944
-0.00992307
-0.000220169
0.0148927
-0.0450802
0.0443539
-0.0139561
-0.00021034
0.0189612
-0.043569
0.0426995
-0.0178897
-0.000201883
0.0229193
-0.0417559
0.0406991
-0.02171
-0.000152584
0.0267569
-0.0395355
0.0383636
-0.0254043
-0.000180783
0.0304359
-0.0370941
0.0356557
-0.0289337
-6.39041e-05
0.0339439
0.0325964
-0.0322873
-0.00022549
-0.0340274
0.037193
0.0291731
-0.0353819
0.000105611
-0.0310899
0.0402003
0.0253109
-0.0382359
-0.000422261
-0.0268531
0.0427793
0.0212296
-0.0406731
0.00050888
-0.0238448
0.0450777
0.0163749
-0.0428453
-0.00110591
-0.0175013
0.0467288
0.0114542
-0.0443934
0.00168414
-0.0154738
0.0485649
0.00720188
-0.0461373
-0.00606659
-0.00356283
0.0486918
0.00379543
-0.0462726
0.00395254
-0.0101672
-0.0495912
0.00265728
0.046092
0.000841976
-0.0589187
-0.0108056
0.0142497
0.0547807
0.00069383
-0.0549008
-0.011537
0.0172824
0.0513198
-0.0021644
-0.0510453
-0.0238016
0.0265711
0.0480586
0.000217187
-0.046053
-0.0275943
0.0297089
0.0436279
0.000310531
-0.0409088
-0.0327315
0.0345389
0.0390155
8.58307e-05
-0.0356943
-0.0358545
0.0371745
0.0342386
0.000135683
-0.0305632
-0.0387592
0.0397794
0.0294756
6.74012e-05
-0.0255623
-0.0407205
0.0414564
0.0247823
4.40784e-05
-0.0207133
-0.0422812
0.0427846
0.0201937
1.62626e-05
-0.0160137
-0.0433028
0.0436059
0.0157211
-1.05383e-05
-0.0114546
-0.0439476
0.0440675
0.0113664
-3.186e-05
-0.00702259
-0.0442044
0.0441549
0.00712674
-5.46419e-05
-0.00270788
-0.0441145
0.0439059
0.00299414
-7.75999e-05
0.00148162
-0.0437177
0.0434074
-0.00105707
-0.00011424
0.00557943
-0.0431011
0.0426798
-0.0049934
-0.000164735
0.00957021
-0.0422485
0.0417164
-0.00884283
-0.00019526
0.0134578
-0.0411478
0.0404743
-0.0125934
-0.0001909
0.0172375
-0.0397386
0.0389306
-0.0162383
-0.000191166
0.0208949
-0.0380463
0.0370577
-0.0197616
-0.000144615
0.0244197
-0.0359599
0.0348778
-0.0231507
-0.000186961
0.0277747
0.0323525
-0.0263682
-6.07812e-05
-0.0336983
0.0309529
0.0295237
-0.0294073
-0.000255505
-0.0308139
0.0338708
0.0263646
-0.0321901
0.000114951
-0.0281602
0.0365583
0.0228379
-0.0347455
-0.000496429
-0.0241542
0.0388382
0.0191082
-0.036906
0.000549324
-0.0215897
0.0408802
0.0147305
-0.0388415
-0.00129447
-0.0154747
0.0423158
0.0101856
-0.040192
0.00180879
-0.0141182
0.0439576
0.00660271
-0.041746
-0.00653003
-0.00228424
0.0440241
0.00358104
-0.0418297
0.00416775
-0.00994317
-0.0429608
0.00191432
0.0401089
0.000937532
-0.0511292
-0.00952716
0.0121588
0.0477329
0.000764648
-0.0481363
-0.00842765
0.0144353
0.0450909
-0.00296225
-0.0453352
-0.0205407
0.0227142
0.0426737
0.000488007
-0.0413454
-0.0231775
0.0252908
0.0391055
0.000126645
-0.0371708
-0.0283047
0.0300166
0.03535
0.000108891
-0.0327531
-0.0311786
0.0325309
0.0313008
0.000100047
-0.0283053
-0.0341558
0.0352079
0.0271798
7.33753e-05
-0.0238718
-0.0361428
0.0369394
0.0230303
4.48252e-05
-0.0195059
-0.0378145
0.0383771
0.0189126
3.06088e-05
-0.0152218
-0.0389338
0.0392996
0.01485
6.00977e-06
-0.0110295
-0.0396904
0.0398706
0.01086
-1.06561e-05
-0.00692894
-0.0400541
0.040064
0.00695043
-3.14225e-05
-0.00292024
-0.0400724
0.0399214
0.00312493
-5.3704e-05
0.00097798
-0.0397737
0.0395198
-0.000637296
-8.68106e-05
0.00479886
-0.0392571
0.0388868
-0.00428901
-0.000139482
0.00851383
-0.0384976
0.0380184
-0.00786138
-0.000173247
0.0121246
-0.0374952
0.0368785
-0.0113353
-0.000172657
0.0156237
-0.0361933
0.0354517
-0.0147017
-0.000180255
0.0189948
-0.0346285
0.0337129
-0.0179437
-0.000135452
0.0222277
0.0316948
-0.021049
-0.000190607
-0.0326829
0.0252869
0.0293547
-0.0239819
-5.47841e-05
-0.0306049
0.0281697
0.0267534
-0.0267397
-0.000280692
-0.0279027
0.0307957
0.0238458
-0.0292467
0.000130326
-0.0255251
0.0332061
0.0206354
-0.0315432
-0.000563467
-0.0217348
0.035232
0.0172262
-0.0334674
0.000595149
-0.0195859
0.0370562
0.0132843
-0.0352016
-0.00146699
-0.0136719
0.0383123
0.00906445
-0.0363863
0.00193254
-0.012923
0.0397696
0.00608368
-0.0377565
-0.00694275
-0.00115397
0.0398049
0.00338616
-0.0378171
0.00437156
-0.00974555
-0.0375375
0.00136146
0.0351592
0.00101687
-0.0447199
-0.00858598
0.0106105
0.0418765
0.000818898
-0.0423906
-0.00612149
0.0123491
0.0397827
-0.00361974
-0.040274
-0.0180091
0.0196326
0.0379191
0.000731247
-0.0370363
-0.0195889
0.0217002
0.0349995
-7.44959e-05
-0.0336232
-0.0246437
0.0262108
0.0319121
0.000143936
-0.0298746
-0.0271785
0.0285309
0.0284703
5.17992e-05
-0.0260308
-0.0301467
0.0311894
0.0249101
7.79085e-05
-0.0221188
-0.0320747
0.0329024
0.0212542
3.68277e-05
-0.0182121
-0.0337932
0.0343889
0.0175775
3.88205e-05
-0.0143329
-0.0349556
0.0353656
0.0139085
1.44353e-05
-0.0105045
-0.0357843
0.0360106
0.0102747
3.54819e-06
-0.00673551
-0.0362241
0.0362843
0.00669114
-1.59176e-05
-0.0030341
-0.0363291
0.0362289
0.00317005
-3.58442e-05
0.000571186
-0.036116
0.0359175
-0.000307328
-6.53611e-05
0.00411669
-0.0356916
0.035371
-0.0036766
-0.000119489
0.00755901
-0.0350201
0.0345948
-0.00697825
-0.000155384
0.0109003
-0.034115
0.0335569
-0.0101844
-0.000157739
0.0141302
-0.0329209
0.0322482
-0.0132849
-0.000172646
0.0172311
0.0306452
-0.016262
-0.000128926
-0.0314854
0.0201934
0.028789
-0.0191039
-0.000197458
-0.029681
0.0229826
0.0266313
-0.0217766
-5.11946e-05
-0.0277861
0.0255998
0.02425
-0.0242812
-0.00030824
-0.0252604
0.0279697
0.0215791
-0.0265446
0.00014321
-0.0231475
0.0301404
0.018668
-0.0286165
-0.000634373
-0.0195575
0.0319477
0.0155502
-0.0303354
0.00063693
-0.0177994
0.0335865
0.0120056
-0.031897
-0.00163458
-0.0120605
0.0346938
0.00806441
-0.0329515
0.00205472
-0.0118614
0.0359589
0.00562936
-0.0341061
-0.00733544
-0.000146735
0.035994
0.00321046
-0.0341885
0.00455615
-0.00957206
-0.0330074
0.000931684
0.0309889
0.00108675
-0.039348
-0.00786684
0.00941009
0.0369324
0.000872335
-0.0374827
-0.00434843
0.0107657
0.0352486
-0.00418321
-0.0358154
-0.0159954
0.0171321
0.0337388
0.00093991
-0.0331448
-0.016638
0.0187532
0.0313074
-0.000277761
-0.0303253
-0.021591
0.0229904
0.0287434
0.000182475
-0.0271313
-0.0237455
0.0250842
0.025801
-8.43941e-06
-0.0238118
-0.0266591
0.0276661
0.0227259
7.88245e-05
-0.0203666
-0.0284739
0.0293114
0.0195079
2.11443e-05
-0.0168857
-0.0301906
0.0307993
0.0162361
4.09369e-05
-0.0133896
-0.0313534
0.0317925
0.0129354
1.51297e-05
-0.00991174
-0.0322204
0.0324811
0.00964068
1.03547e-05
-0.00646584
-0.0327097
0.0328121
0.00637128
-7.84293e-06
-0.00306617
-0.0328818
0.0328284
0.00314564
-2.60041e-05
0.000252789
-0.0327388
0.0325971
-5.83323e-05
-5.27098e-05
0.00352626
-0.0323968
0.0321254
-0.00314936
-0.000105535
0.00670292
-0.0318086
0.0314371
-0.00618931
-0.000142083
0.00978412
-0.030997
0.0304982
-0.00913853
-0.000146784
0.0127572
0.0293056
-0.0119866
-0.000167885
-0.0299084
0.015604
0.0278357
-0.0147149
-0.000125156
-0.0285996
0.0183152
0.026138
-0.0173133
-0.000205977
-0.0269339
0.0208577
0.0241546
-0.0197483
-4.82424e-05
-0.0252158
0.0232365
0.0219849
-0.0220252
-0.000337477
-0.0228588
0.0253788
0.0195357
-0.0240721
0.000155616
-0.020998
0.02734
0.0169094
-0.0259458
-0.000708277
-0.0175953
0.0289571
0.0140465
-0.0274848
0.000682813
-0.0162017
0.0304351
0.0108637
-0.0288946
-0.00179553
-0.0106086
0.0314268
0.00711919
-0.0298335
0.00219691
-0.0109094
0.0324634
0.00527828
-0.030776
-0.00770527
0.000739598
0.032545
0.00305435
-0.0309022
0.00471671
-0.00941379
-0.029164
0.000590474
0.0274278
0.00114568
-0.0347892
-0.0072961
0.00843532
0.0327156
0.000934463
-0.0333011
-0.00296753
0.00953364
0.0313917
-0.00465675
-0.0319004
-0.0143526
0.0150676
0.0300702
0.00111529
-0.0296543
-0.0141769
0.0163099
0.0280036
-0.000482327
-0.0273026
-0.0190252
0.0202509
0.0258532
0.000223835
-0.0245637
-0.0207891
0.0221094
0.0233207
-7.7253e-05
-0.0216934
-0.023621
0.0245758
0.0206581
8.05099e-05
-0.0186612
-0.0252891
0.0261261
0.0178256
-1.46526e-06
-0.0155673
-0.0269759
0.0275838
0.014921
3.83446e-05
-0.0124267
-0.0281039
0.0285608
0.0119597
1.00709e-05
-0.00927925
-0.0289835
0.0292692
0.00898252
1.10675e-05
-0.00614203
-0.0294997
0.0296373
0.00601118
-6.73388e-06
-0.00303371
-0.0297224
0.0297135
0.00306582
-2.32146e-05
2.03126e-06
-0.029645
0.029538
0.000152862
-4.79042e-05
0.00301887
-0.0293617
0.0291407
-0.00270036
-9.75669e-05
0.00594005
-0.0288533
0.0285352
-0.00548788
-0.000134052
0.00877245
0.0276899
-0.00819278
-0.000139924
-0.0281297
0.0115025
0.0266087
-0.0108028
-0.000167275
-0.0271411
0.0141112
0.0252663
-0.0132996
-0.000123421
-0.0259545
0.0165907
0.0237199
-0.0156733
-0.000217129
-0.0244201
0.0189085
0.0219024
-0.0178923
-4.61665e-05
-0.0228725
0.0210732
0.0199347
-0.0199639
-0.000370709
-0.0206733
0.0230125
0.0176952
-0.021816
0.000164721
-0.0190564
0.0247886
0.0153337
-0.0235138
-0.00078391
-0.0158247
0.0262356
0.0126926
-0.0248901
0.000730934
-0.014769
0.0275705
0.00984151
-0.0261643
-0.00195434
-0.00929342
0.0284435
0.00625704
-0.0269857
0.00233969
-0.0100546
0.0293011
0.0049843
-0.0277717
-0.00802772
0.00151408
0.0294233
0.00291397
-0.0279262
0.00485339
-0.00926445
-0.0258632
0.000318297
0.0243518
0.00119314
-0.0308737
-0.00681806
0.00760869
0.0290594
0.00102364
-0.0297081
-0.00193612
0.00854126
0.0280003
-0.00489737
-0.0284565
-0.0129588
0.0133286
0.0268293
0.0012573
-0.0265349
-0.0120934
0.014263
0.025053
-0.000687698
-0.0245534
-0.0168512
0.0179056
0.0232321
0.000266924
-0.0221888
-0.0182308
0.0195339
0.0210392
-0.000153466
-0.0196996
-0.0209707
0.0218635
0.0187258
8.10559e-05
-0.017032
-0.0224692
0.0233025
0.0162314
-3.2649e-05
-0.0142848
-0.0241085
0.0247084
0.0136547
3.02375e-05
-0.0114685
-0.025182
0.0256512
0.0110011
-1.83018e-06
-0.00862946
-0.0260562
0.0263587
0.00832013
6.80148e-06
-0.00578275
-0.0265803
0.0267463
0.00562842
-1.16557e-05
-0.00295207
-0.0268359
0.0268659
0.00294889
-2.68323e-05
-0.000163018
-0.0268137
0.026737
0.000293417
-5.37116e-05
0.002585
-0.0265811
0.0264081
-0.00231622
-9.58071e-05
0.0052637
0.0258766
-0.00486632
-0.00013154
-0.0261424
0.00786061
0.0251182
-0.00734157
-0.000138232
-0.025499
0.010362
0.0241415
-0.00972955
-0.00016965
-0.0246042
0.0127497
0.0229186
-0.0120116
-0.000125097
-0.0235316
0.0150164
0.0215178
-0.0141796
-0.000231577
-0.0221231
0.0171285
0.0198568
-0.0162001
-4.86101e-05
-0.0207366
0.0190995
0.0180848
-0.0180846
-0.000409593
-0.0186901
0.0208555
0.0160345
-0.0197614
0.000173626
-0.0173023
0.022464
0.0139154
-0.0212972
-0.000858792
-0.0142234
0.0237591
0.0114693
-0.0225303
0.000777871
-0.0134759
0.0249669
0.0089289
-0.0236841
-0.00211021
-0.00810149
0.0257298
0.00548812
-0.0244015
0.00246911
-0.0092855
0.0264484
0.00471695
-0.0250605
-0.00829048
0.0021856
0.0265983
0.0027845
-0.0252329
0.00497161
-0.0091215
-0.0229956
0.00010158
0.0216636
0.00123041
-0.0274556
-0.00641783
0.00689201
0.0258586
0.00112286
-0.0264908
-0.001138
0.00772128
0.0249565
-0.00504897
-0.0254055
-0.0117708
0.0118519
0.0239556
0.00136872
-0.0237487
-0.0103147
0.0125322
0.0224189
-0.000887659
-0.0220653
-0.0149942
0.0158877
0.020865
0.000306918
-0.020011
-0.0160114
0.0173003
0.0189535
-0.000231322
-0.017843
-0.0186528
0.0194809
0.0169363
7.86659e-05
-0.0154944
-0.0199737
0.020799
0.0147363
-6.72794e-05
-0.0130561
-0.0215509
0.022138
0.0124492
1.99493e-05
-0.0105381
-0.0225551
0.0230347
0.0100795
-2.09384e-05
-0.00798069
-0.0234137
0.0237322
0.00766782
-5.61593e-06
-0.00540423
-0.0239311
0.0241244
0.00523475
-2.38023e-05
-0.00283267
-0.0242097
0.0242734
0.00280398
-3.49947e-05
-0.000288564
-0.0242263
0.0241868
0.000389034
-6.10604e-05
0.00221766
0.0239135
-0.00199199
-9.84069e-05
-0.0240408
0.00466729
0.0234477
-0.00431991
-0.000133315
-0.0236618
0.00704287
0.0227687
-0.00658085
-0.000139617
-0.0230911
0.00933134
0.0218902
-0.00876186
-0.000177145
-0.0222825
0.0115135
0.0207817
-0.0108452
-0.000130171
-0.0213199
0.0135843
0.0195169
-0.0128225
-0.000251574
-0.0200271
0.0155082
0.0180062
-0.0146619
-5.41101e-05
-0.0187984
0.0173018
0.0164116
-0.0163748
-0.000448594
-0.01689
0.0188916
0.0145345
-0.0178895
0.00017923
-0.0157159
0.0203468
0.0126327
-0.0192803
-0.000930311
-0.0127689
0.0215078
0.0103634
-0.0203857
0.000822367
-0.0123077
0.0226022
0.00810984
-0.0214313
-0.00226372
-0.00701704
0.0232687
0.0047954
-0.0220586
0.00258617
-0.00859164
0.0238745
0.00447238
-0.0226132
-0.00850498
0.00277132
0.0240432
0.00266573
-0.0227966
0.00507394
-0.00898622
-0.0204796
-0.000101238
0.019308
0.00127288
-0.024464
-0.00609718
0.00628372
0.0230625
0.00121502
-0.0236216
-0.000482325
0.00702018
0.0222565
-0.00517284
-0.0226992
-0.0107568
0.0105874
0.0214069
0.00146165
-0.0212633
-0.00878577
0.0110571
0.0200698
-0.00107778
-0.0198205
-0.0133966
0.0141397
0.018733
0.000344349
-0.0180263
-0.0140743
0.0153557
0.01706
-0.000315085
-0.0161316
-0.0166241
0.0173895
0.0152932
7.30343e-05
-0.0140574
-0.0177647
0.0185817
0.0133469
-0.000106504
-0.0118965
-0.0192737
0.0198445
0.0113167
9.02717e-06
-0.00964432
-0.0201992
0.0206874
0.00919877
-4.26629e-05
-0.00734727
-0.0210273
0.0213613
0.007034
-2.07056e-05
-0.00502087
-0.0215316
0.0217526
0.00483934
-3.94826e-05
-0.00268874
-0.0218223
0.0219217
0.00263828
-4.89689e-05
-0.000372816
0.021868
0.00044595
-7.30677e-05
-0.021868
0.00190897
0.0216423
-0.00171934
-0.000106558
-0.0217253
0.00414422
0.0212355
-0.00384086
-0.000140505
-0.0213984
0.00631396
0.0206297
-0.00590268
-0.000147267
-0.0208937
0.00840416
0.0198425
-0.00789163
-0.000188637
-0.0201664
0.0103965
0.018841
-0.0097914
-0.00014109
-0.019305
0.0122852
0.0177045
-0.0115932
-0.000273353
-0.0181232
0.0140358
0.0163269
-0.0132638
-6.21457e-05
-0.0170368
0.0156663
0.0149001
-0.0148172
-0.000492646
-0.0152565
0.0171018
0.013169
-0.0161854
0.000189009
-0.0142745
0.0184207
0.0114752
-0.0174463
-0.00100475
-0.0114448
0.0194622
0.00936166
-0.0184378
0.000864756
-0.0112508
0.0204546
0.00737417
-0.0193865
-0.00241147
-0.0060308
0.0210387
0.00417044
-0.019937
0.00269137
-0.00796347
0.0215517
0.00424843
-0.020406
-0.00867193
0.00327788
0.0217334
0.00255726
-0.0205949
0.00516358
-0.00885928
-0.0182836
-0.000279366
0.0172479
0.00131507
-0.0218437
-0.00582485
0.00578904
0.0205977
0.00128184
-0.0210842
7.47464e-05
0.00639138
0.0198764
-0.00525824
-0.0202992
-0.00988262
0.00949294
0.0191464
0.00154251
-0.0190459
-0.00746148
0.00979148
0.017975
-0.00125908
-0.0178018
-0.0120146
0.0126192
0.0168181
0.000379103
-0.0162256
-0.012378
0.0136562
0.015344
-0.000396638
-0.0145651
-0.0148398
0.0155463
0.0137944
6.41694e-05
-0.0127271
-0.0158082
0.016619
0.0120675
-0.000151189
-0.0108061
-0.0172463
0.0178019
0.0102613
-1.09159e-05
-0.0087948
-0.0180891
0.0185842
0.00836903
-6.92923e-05
-0.00673236
-0.0188813
0.0192284
0.00642549
-4.02143e-05
-0.00463453
-0.0193632
0.0196093
0.00444755
-5.90711e-05
-0.00252466
0.019791
0.00245768
-6.62435e-05
-0.0196578
-0.000422507
0.0197662
0.000470892
-8.94079e-05
-0.0197252
0.0016538
0.0195795
-0.00149656
-0.00011921
-0.0196175
0.00368935
0.0192248
-0.00342501
-0.000151508
-0.0193376
0.00566634
0.0186866
-0.00530091
-0.000157078
-0.0188949
0.00757395
0.0179821
-0.00711335
-0.000203011
-0.0182396
0.00938757
0.0170789
-0.00883986
-0.000152621
-0.017474
0.0111069
0.0160582
-0.0104764
-0.000299567
-0.0163891
0.0126964
0.0148056
-0.0119916
-7.30027e-05
-0.0154373
0.0141749
0.0135215
-0.0134
-0.00053047
-0.013766
0.0154739
0.0119322
-0.014637
0.000194359
-0.0129634
0.0166705
0.0104287
-0.0157808
-0.00107928
-0.0102391
0.0176047
0.00845408
-0.0166703
0.00090717
-0.0102956
0.0185057
0.00671083
-0.0175307
-0.00255538
-0.00513043
0.01902
0.00360461
-0.0180167
0.00278643
-0.0073943
0.0194591
0.0040407
-0.0184195
-0.00879338
0.00371306
0.0196474
0.00245627
-0.0186068
0.00524149
-0.00873834
-0.0163477
-0.000422105
0.0154232
0.00134661
-0.0195225
-0.00558973
0.00536981
0.0184108
0.00133157
-0.0188582
0.000542365
0.0058432
0.0177876
-0.00531492
-0.0181695
-0.00912559
0.00854224
0.0171394
0.0016135
-0.0170686
-0.00630882
0.00869993
0.0161062
-0.00142865
-0.0159885
-0.0108118
0.0112897
0.0150991
0.000411489
-0.014598
-0.0108854
0.0121663
0.0137964
-0.000479237
-0.0131378
-0.0132678
0.0139179
0.0124311
5.65789e-05
-0.0115059
-0.0140686
0.0148757
0.010898