/*--------------------------------*- C++ -*----------------------------------*\
  =========                 |
  \\      /  F ield         | OpenFOAM: The Open Source CFD Toolbox
   \\    /   O peration     | Website:  https://openfoam.org
    \\  /    A nd           | Version:  10
     \\/     M anipulation  |
\*---------------------------------------------------------------------------*/
FoamFile
{
    format      ascii;
    class       volVectorField;
    location    "0.05";
    object      U;
}
// * * * * * * * * * * * * * * * * * * * * * * * * * * * * * * * * * * * * * //

dimensions      [0 1 -1 0 0 0 0];

internalField   nonuniform List<vector> 
116798
(
(1.16126 -6.73461 -0.375188)
(-2.972 8.07784 -5.43855)
(-0.883687 8.73282 -5.29284)
(2.01504 7.10689 -4.49343)
(4.44944 5.33535 -3.63113)
(6.32946 3.88432 -2.89625)
(7.63269 2.81167 -2.31171)
(8.43732 2.05052 -1.85385)
(8.88561 1.49179 -1.48608)
(9.11777 1.0344 -1.17164)
(9.23296 0.608235 -0.883537)
(9.28571 0.172226 -0.604133)
(9.31284 -0.2942 -0.317584)
(9.33721 -0.822852 -0.0552926)
(9.32596 -1.41397 0.205494)
(9.27514 -2.04077 0.446763)
(9.17685 -2.6821 0.676497)
(9.04321 -3.32273 0.9015)
(8.88228 -3.96369 1.12924)
(8.69457 -4.61684 1.36469)
(8.47135 -5.2978 1.61026)
(8.20028 -6.02077 1.8678)
(7.85711 -6.80178 2.13886)
(7.42347 -7.65118 2.42601)
(6.83745 -8.58338 2.72916)
(6.09286 -9.5893 3.05229)
(4.98984 -10.6663 3.38077)
(3.64508 -11.719 3.72757)
(1.13731 -12.6842 3.91571)
(-0.933819 -12.1117 4.33058)
(-1.54602 5.18003 -2.77372)
(-0.799738 12.6463 -3.99185)
(2.89101 10.2289 -3.11328)
(5.42621 8.08858 -2.49278)
(7.31679 6.46395 -1.95816)
(8.53868 5.26463 -1.49291)
(9.20804 4.3666 -1.10611)
(9.51388 3.63278 -0.794991)
(9.61315 2.96956 -0.548395)
(9.60816 2.32841 -0.352717)
(9.54736 1.68904 -0.199442)
(9.44998 1.04333 -0.0828039)
(9.31801 0.38527 0.00408876)
(9.19506 -0.257588 0.0653944)
(9.05994 -0.905562 0.0897203)
(8.92281 -1.54958 0.107746)
(8.78504 -2.18316 0.130984)
(8.63732 -2.8087 0.159004)
(8.4675 -3.43554 0.189259)
(8.26607 -4.07316 0.221887)
(8.02015 -4.73044 0.255206)
(7.72155 -5.41288 0.289897)
(7.34275 -6.12708 0.323587)
(6.88056 -6.86985 0.361925)
(6.25904 -7.6426 0.394584)
(5.52207 -8.41439 0.443767)
(4.43021 -9.17015 0.467782)
(3.27041 -9.78989 0.552471)
(1.17752 -10.2159 0.446257)
(0.450184 -9.85036 0.751614)
(-0.443582 11.2798 -1.75821)
(2.11375 15.4058 -2.45561)
(5.50449 12.0042 -1.6969)
(7.47968 9.35727 -1.20488)
(8.7001 7.47221 -0.791362)
(9.2763 6.08425 -0.453559)
(9.43889 4.98613 -0.21716)
(9.41046 4.04357 -0.0698646)
(9.30509 3.19535 0.00941628)
(9.1793 2.41596 0.0442856)
(9.04786 1.69388 0.0526056)
(8.91443 1.01812 0.0488014)
(8.77514 0.376834 0.0447842)
(8.64473 -0.237624 0.0463711)
(8.51815 -0.836406 0.0452441)
(8.38352 -1.43025 0.0484332)
(8.24127 -2.02441 0.0546306)
(8.08297 -2.62301 0.0596356)
(7.89585 -3.23105 0.0647121)
(7.67297 -3.85235 0.0704181)
(7.40163 -4.48998 0.0765036)
(7.07795 -5.14387 0.0846027)
(6.67201 -5.81465 0.0911475)
(6.1972 -6.49314 0.103902)
(5.5648 -7.17337 0.108545)
(4.87449 -7.8217 0.134521)
(3.83589 -8.41708 0.131853)
(2.9034 -8.87036 0.206896)
(1.03019 -9.17502 0.071503)
(0.703737 -9.13435 0.422504)
(0.277229 14.0141 -1.43662)
(3.46975 15.1127 -1.70395)
(6.73588 12.1435 -1.01724)
(8.22613 9.53441 -0.492505)
(8.8155 7.62916 -0.154203)
(8.93679 6.18282 0.0192076)
(8.85155 5.03369 0.0717744)
(8.72943 4.06942 0.0753912)
(8.60491 3.22912 0.0607255)
(8.49437 2.47356 0.0447538)
(8.38898 1.77801 0.0324351)
(8.28425 1.12394 0.0258751)
(8.17146 0.497149 0.0248095)
(8.05312 -0.110276 0.0296254)
(7.93553 -0.710628 0.0295178)
(7.8021 -1.30279 0.0302853)
(7.65729 -1.89177 0.0315298)
(7.49197 -2.48072 0.0321033)
(7.29524 -3.07301 0.0320333)
(7.06057 -3.67112 0.0325804)
(6.77572 -4.27696 0.0331925)
(6.44223 -4.88872 0.0355471)
(6.02559 -5.50545 0.0352149)
(5.55864 -6.1158 0.0427039)
(4.93417 -6.71348 0.0392529)
(4.31077 -7.26574 0.0619109)
(3.32518 -7.76179 0.05229)
(2.58964 -8.13033 0.132361)
(0.78794 -8.41245 -0.0423681)
(0.730786 -8.43254 0.351358)
(0.976543 14.0999 -1.18593)
(3.73247 13.5452 -1.02539)
(6.38315 11.3951 -0.473515)
(7.55427 9.1411 -0.0596613)
(7.9067 7.40977 0.0676971)
(7.98008 6.05789 0.0843851)
(7.93476 4.97209 0.05857)
(7.89346 4.05212 0.04049)
(7.83901 3.24372 0.0265432)
(7.78714 2.5103 0.0187787)
(7.72623 1.83007 0.0154065)
(7.65539 1.18789 0.015012)
(7.5679 0.572414 0.0169022)
(7.46501 -0.0291746 0.0223608)
(7.35777 -0.603346 0.023545)
(7.23032 -1.17237 0.02447)
(7.08724 -1.73615 0.0250721)
(6.92014 -2.29784 0.024627)
(6.71923 -2.86011 0.0231607)
(6.47983 -3.42392 0.0220781)
(6.19018 -3.9895 0.0207289)
(5.85645 -4.55348 0.0221136)
(5.44191 -5.11318 0.0198965)
(4.99506 -5.65686 0.0265016)
(4.39202 -6.17887 0.020613)
(3.83752 -6.65081 0.0440555)
(2.9027 -7.07008 0.0314535)
(2.31202 -7.38124 0.121323)
(0.541822 -7.64002 -0.0797904)
(0.662543 -7.68618 0.351501)
(1.12555 12.371 -0.904631)
(3.46153 11.7129 -0.467979)
(5.09183 10.175 -0.112112)
(6.23573 8.44507 0.0751283)
(6.6475 7.03843 0.057113)
(6.89797 5.86139 0.0452768)
(6.99015 4.87469 0.0226635)
(7.06351 4.01288 0.0174679)
(7.08789 3.24205 0.0120586)
(7.09589 2.53513 0.0104065)
(7.07784 1.87583 0.00970586)
(7.03944 1.2517 0.0105687)
(6.97652 0.653461 0.0125477)
(6.88929 0.0728311 0.0167345)
(6.79305 -0.489528 0.0195847)
(6.67311 -1.04091 0.0211148)
(6.53469 -1.58369 0.022001)
(6.37025 -2.12055 0.0216265)
(6.17073 -2.6534 0.0200093)
(5.93324 -3.18246 0.0187872)
(5.64613 -3.70737 0.016783)
(5.32011 -4.22415 0.0175563)
(4.9165 -4.73013 0.0147386)
(4.49683 -5.2138 0.0212966)
(3.9203 -5.67177 0.0135531)
(3.43348 -6.07884 0.0387322)
(2.5402 -6.4394 0.0236758)
(2.07121 -6.70388 0.12408)
(0.310991 -6.93769 -0.111377)
(0.592565 -6.97616 0.360783)
(0.883965 10.3223 -0.658804)
(2.98225 9.97374 -0.167156)
(3.72142 8.87302 0.0297436)
(5.01546 7.66524 0.0808827)
(5.48504 6.57015 0.0224122)
(5.90793 5.5749 0.0224313)
(6.10889 4.69639 0.00670817)
(6.28059 3.90332 0.00836906)
(6.37041 3.17992 0.00564626)
(6.4313 2.50877 0.00610164)
(6.45171 1.87865 0.00586307)
(6.44365 1.28 0.00702122)
(6.40408 0.705653 0.00890987)
(6.3332 0.149579 0.0125911)
(6.25115 -0.390236 0.016354)
(6.13989 -0.916684 0.0184713)
(6.00881 -1.43227 0.0198393)
(5.85036 -1.93943 0.0197866)
(5.6562 -2.43945 0.0182915)
(5.42527 -2.93197 0.0171479)
(5.14601 -3.41618 0.0148919)
(4.83376 -3.88776 0.0155406)
(4.44576 -4.34439 0.0122095)
(4.05762 -4.77516 0.0192625)
(3.50978 -5.17878 0.0105347)
(3.08625 -5.53215 0.0382716)
(2.22825 -5.84515 0.0223896)
(1.85859 -6.07267 0.13247)
(0.103765 -6.28239 -0.132782)
(0.517206 -6.31359 0.376136)
(0.721215 8.6158 -0.522469)
(2.58688 8.44501 -0.0273389)
(2.68666 7.69043 0.0731157)
(4.09351 6.88067 0.0765399)
(4.51979 6.03127 0.00503608)
(5.05647 5.2095 0.0142234)
(5.316 4.44651 -0.00053706)
(5.56083 3.73474 0.00435535)
(5.699 3.07086 0.00181684)
(5.80342 2.44596 0.00342192)
(5.85615 1.85362 0.00355981)
(5.87495 1.28744 0.00446298)
(5.85686 0.742262 0.00608895)
(5.8025 0.213506 0.00944334)
(5.73361 -0.300614 0.0135799)
(5.63248 -0.800146 0.0161621)
(5.51067 -1.28816 0.0180179)
(5.36068 -1.7658 0.0183634)
(5.17496 -2.23371 0.0171252)
(4.95418 -2.69114 0.0162517)
(4.68661 -3.13712 0.0139464)
(4.39184 -3.56732 0.0149383)
(4.02286 -3.97998 0.011067)
(3.66806 -4.36492 0.018812)
(3.14882 -4.72274 0.00927338)
(2.78433 -5.03212 0.0397315)
(1.9558 -5.30662 0.0224824)
(1.67222 -5.50269 0.142349)
(-0.0808174 -5.69005 -0.154592)
(0.448269 -5.71104 0.391012)
(0.678662 7.2899 -0.470874)
(2.33874 7.19192 0.0385542)
(1.99439 6.6806 0.0887463)
(3.41729 6.13294 0.0800685)
(3.74028 5.47117 -0.00162666)
(4.34065 4.80257 0.0118816)
(4.61867 4.15058 -0.00438615)
(4.91238 3.52312 0.00230394)
(5.08171 2.92375 -0.000667055)
(5.21918 2.35046 0.00154124)
(5.29702 1.80079 0.00164402)
(5.33825 1.27146 0.00271044)
(5.33892 0.759379 0.00385674)
(5.30301 0.261216 0.00673243)
(5.24119 -0.223507 0.0109972)
(5.1538 -0.693981 0.0141799)
(5.04248 -1.15275 0.0164896)
(4.90253 -1.59985 0.0172491)
(4.72732 -2.03555 0.0163358)
(4.51908 -2.45882 0.0158193)
(4.26573 -2.86864 0.0135885)
(3.99078 -3.26079 0.0149213)
(3.64254 -3.63404 0.0108195)
(3.32144 -3.97896 0.0194675)
(2.82994 -4.2976 0.00948185)
(2.51969 -4.57003 0.0426446)
(1.71677 -4.81263 0.0241458)
(1.50701 -4.98273 0.152955)
(-0.245169 -5.15035 -0.173855)
(0.383117 -5.16386 0.405954)
(0.680996 6.25548 -0.453766)
(2.19098 6.18916 0.0731884)
(1.53841 5.83146 0.0946974)
(2.91293 5.44831 0.089697)
(3.11517 4.92701 -0.00258627)
(3.74469 4.38594 0.0124114)
(4.01349 3.83312 -0.00618763)
(4.33642 3.28646 0.00152047)
(4.52178 2.75188 -0.00206505)
(4.68233 2.2322 0.000397441)
(4.77801 1.72775 0.000302406)
(4.83691 1.23785 0.00139425)
(4.85295 0.76121 0.00248645)
(4.83211 0.296256 0.00483488)
(4.78042 -0.157404 0.0091254)
(4.70526 -0.598696 0.012633)
(4.60459 -1.02785 0.0152544)
(4.47555 -1.44472 0.0163903)
(4.31213 -1.84922 0.0158177)
(4.11795 -2.2401 0.0157188)
(3.88028 -2.61636 0.0136361)
(3.62639 -2.97394 0.0154651)
(3.29949 -3.31219 0.0112172)
(3.01161 -3.62221 0.0208783)
(2.54626 -3.90731 0.0104878)
(2.28593 -4.14856 0.0463706)
(1.50531 -4.36456 0.0262793)
(1.36065 -4.51267 0.163391)
(-0.391077 -4.66188 -0.192144)
(0.323944 -4.66938 0.419985)
(0.694825 5.42737 -0.446191)
(2.10146 5.37795 0.0948856)
(1.23133 5.11551 0.0968904)
(2.52739 4.83738 0.100887)
(2.61249 4.41971 -0.00131002)
(3.24943 3.98047 0.0146543)
(3.4919 3.51233 -0.00643073)
(3.82968 3.03907 0.00170639)
(4.01849 2.56585 -0.00261849)
(4.19373 2.09873 -9.54199e-05)
(4.30066 1.63963 -0.000533127)
(4.37262 1.18988 0.000568254)
(4.40074 0.749543 0.00157579)
(4.39231 0.318298 0.00369811)
(4.35121 -0.103557 0.00790988)
(4.28716 -0.514628 0.0115285)
(4.19708 -0.913951 0.0143635)
(4.07929 -1.30097 0.0158401)
(3.9283 -1.67527 0.0156157)
(3.74892 -2.03539 0.0159732)
(3.52769 -2.38039 0.0141159)
(3.29522 -2.70645 0.0165219)
(2.98949 -3.01345 0.0122325)
(2.73362 -3.29255 0.0229978)
(2.29264 -3.54853 0.0122306)
(2.07845 -3.76324 0.0509042)
(1.31719 -3.95658 0.0289763)
(1.22988 -4.08634 0.173825)
(-0.520797 -4.21778 -0.208816)
(0.269475 -4.22255 0.433193)
(0.710186 4.74725 -0.441458)
(2.04538 4.70833 0.110562)
(1.01705 4.50697 0.0976786)
(2.22611 4.29692 0.112369)
(2.2055 3.95712 0.00269396)
(2.8362 3.59753 0.0182095)
(3.04345 3.20029 -0.00548417)
(3.38585 2.79157 0.00262488)
(3.56929 2.37448 -0.00263936)
(3.75229 1.95698 -4.8705e-05)
(3.86483 1.54184 -0.000790571)
(3.94574 1.13165 0.000279065)
(3.98281 0.727428 0.00119073)
(3.98451 0.329776 0.00329264)
(3.95324 -0.0603386 0.0073546)
(3.89936 -0.441265 0.0109022)
(3.81942 -0.811182 0.0138494)
(3.71283 -1.16921 0.0156187)
(3.57438 -1.51461 0.0157223)
(3.41001 -1.84576 0.0165626)
(3.20525 -2.16182 0.0149465)
(2.99405 -2.4591 0.0180296)
(2.70876 -2.73787 0.0136999)
(2.48338 -2.98988 0.0256732)
(2.06501 -3.22071 0.0144635)
(1.89352 -3.41241 0.0559932)
(1.14901 -3.58641 0.0319448)
(1.11249 -3.70139 0.184488)
(-0.635807 -3.81249 -0.225549)
(0.220359 -3.81865 0.445264)
(0.72388 4.17742 -0.438002)
(2.00844 4.1457 0.123038)
(0.862794 3.98737 0.0973217)
(1.98675 3.82148 0.123329)
(1.87286 3.54032 0.00785847)
(2.4893 3.2429 0.0226896)
(2.65736 2.90411 -0.00366161)
(2.99792 2.55142 0.00441862)
(3.17026 2.1843 -0.00201098)
(3.35553 1.81266 0.000491737)
(3.46922 1.43888 -0.000529013)
(3.55553 1.06661 0.000523883)
(3.59884 0.697382 0.0013425)
(3.60857 0.332517 0.00337674)
(3.58602 -0.0265689 0.00736684)
(3.54115 -0.377871 0.0107429)
(3.47078 -0.719159 0.0137419)
(3.37502 -1.04925 0.0157553)
(3.24888 -1.36712 0.0161646)
(3.09922 -1.67108 0.0174793)
(2.91067 -1.96032 0.0161335)
(2.71989 -2.23132 0.0199042)
(2.45423 -2.48477 0.0156946)
(2.25761 -2.71269 0.0287693)
(1.86049 -2.92135 0.0171888)
(1.72778 -3.09307 0.0613996)
(0.997835 -3.25015 0.0354846)
(1.00805 -3.35321 0.197003)
(-0.722284 -3.44099 -0.241023)
(0.177959 -3.45278 0.455827)
(0.733918 3.693 -0.435153)
(1.97998 3.66783 0.134355)
(0.752289 3.54607 0.0943141)
(1.79364 3.40452 0.133316)
(1.59809 3.167 0.0135841)
(2.19624 2.91865 0.0278408)
(2.32437 2.62782 -0.000453923)
(2.65864 2.32283 0.00712817)
(2.8165 1.99985 -0.000399593)
(3.00067 1.6698 0.00175208)
(3.11149 1.33432 0.000176408)
(3.20057 0.997668 0.00118698)
(3.24773 0.661757 0.00197478)
(3.26379 0.328327 0.00393493)
(3.2486 -0.00250314 0.00772305)
(3.21147 -0.323497 0.0110218)
(3.15007 -0.637208 0.0140504)
(3.06457 -0.940605 0.016292)
(2.95017 -1.23247 0.0169855)
(2.81475 -1.511 0.0188129)
(2.64151 -1.77552 0.0177629)
(2.47046 -2.02264 0.0223479)
(2.22314 -2.25334 0.0181617)
(2.05416 -2.45968 0.0323285)
(1.6762 -2.64884 0.0202746)
(1.57867 -2.80246 0.0668655)
(0.860814 -2.94436 0.0389938)
(0.913325 -3.03457 0.209202)
(-0.792259 -3.10594 -0.25445)
(0.141019 -3.12149 0.465016)
(0.738883 3.27621 -0.432584)
(1.95 3.25603 0.146825)
(0.678663 3.16358 0.0866404)
(1.63499 3.03716 0.14169)
(1.36868 2.8336 0.0194025)
(1.94714 2.62413 0.033315)
(2.03604 2.37289 0.0033436)
(2.36166 2.10833 0.0105978)
(2.50282 1.82412 0.00230782)
(2.6836 1.53133 0.00396409)
(2.78947 1.23052 0.00182023)
(2.87909 0.92713 0.00245765)
(2.92803 0.622533 0.00302975)
(2.94874 0.319076 0.00487314)
(2.93966 0.0180962 0.00821516)
(2.90931 -0.27692 0.0117514)
(2.85604 -0.564582 0.0148214)
(2.77998 -0.842765 0.0172976)
(2.67667 -1.11022 0.0183634)
(2.55449 -1.3652 0.0207731)
(2.39611 -1.60709 0.0201483)
(2.24349 -1.83223 0.0252725)
(2.01406 -2.04228 0.021147)
(1.8704 -2.22921 0.036156)
(1.5096 -2.40046 0.0235897)
(1.44362 -2.53808 0.0724914)
(0.736285 -2.66653 0.0423752)
(0.825573 -2.74531 0.21976)
(-0.853725 -2.80364 -0.265665)
(0.107933 -2.82168 0.473149)
(0.738902 2.91351 -0.430339)
(1.92044 2.89602 0.15951)
(0.628275 2.81977 0.0748891)
(1.5036 2.71165 0.148626)
(1.17563 2.53591 0.0251798)
(1.73416 2.35791 0.0389343)
(1.78619 2.13938 0.0074469)
(2.10113 1.90897 0.0146026)
(2.2247 1.6587 0.00567894)
(2.40028 1.39875 0.00702179)
(2.49972 1.13011 0.00468396)
(2.58889 0.856924 0.00500688)
(2.63786 0.581355 0.00530749)
(2.66192 0.305815 0.0069987)
(2.65775 0.031879 0.00986847)
(2.63335 -0.237662 0.0133479)
(2.58719 -0.500718 0.0164527)
(2.51978 -0.755204 0.0191985)
(2.42672 -0.999886 0.0205755)
(2.31745 -1.23295 0.0234056)
(2.17248 -1.45391 0.0228611)
(2.03805 -1.65907 0.0287208)
(1.82434 -1.8502 0.0243627)
(1.70431 -2.01935 0.0403894)
(1.35795 -2.17442 0.0270057)
(1.32132 -2.29778 0.0782112)
(0.622365 -2.41418 0.045346)
(0.743845 -2.48297 0.228789)
(-0.907923 -2.53088 -0.275545)
(0.0783646 -2.55049 0.480351)
(0.73451 2.59509 -0.426662)
(1.89152 2.5815 0.171067)
(0.586934 2.51426 0.065007)
(1.39328 2.42302 0.154667)
(1.01198 2.27055 0.0307973)
(1.55103 2.11787 0.0446565)
(1.56874 1.92703 0.0118211)
(1.87302 1.72556 0.0188166)
(1.97814 1.50438 0.00969449)
(2.14748 1.27402 0.0107771)
(2.23963 1.03368 0.00820681)
(2.32657 0.788391 0.00836039)
(2.37513 0.539666 0.00845915)
(2.40141 0.289872 0.00995557)
(2.40095 0.0408448 0.0125786)
(2.38185 -0.204617 0.0159241)
(2.34204 -0.444673 0.0189066)
(2.28255 -0.677146 0.0217005)
(2.19916 -0.900638 0.0231695)
(2.10176 -1.11348 0.0263471)
(1.96974 -1.31508 0.0261474)
(1.85129 -1.50169 0.0322856)
(1.6525 -1.67538 0.0279658)
(1.55283 -1.82818 0.0445244)
(1.22018 -1.96875 0.0305288)
(1.21013 -2.07949 0.083965)
(0.51827 -2.18508 0.0480281)
(0.667426 -2.24534 0.236445)
(-0.955442 -2.2848 -0.283585)
(0.0520497 -2.3054 0.486667)
(0.730772 2.31759 -0.422468)
(1.86346 2.30536 0.180152)
(0.545612 2.2444 0.0584692)
(1.29881 2.16719 0.160334)
(0.872215 2.03388 0.0360284)
(1.3929 1.90223 0.0505038)
(1.37906 1.73428 0.0164192)
(1.67242 1.55787 0.0234168)
(1.76003 1.36183 0.0137646)
(1.92223 1.15693 0.0150914)
(2.00631 0.942363 0.012269)
(2.09041 0.722045 0.0124107)
(2.13742 0.497727 0.0121918)
(2.16507 0.271761 0.0134984)
(2.16776 0.0458628 0.0158133)
(2.153 -0.177486 0.0189432)
(2.11889 -0.396054 0.0218503)
(2.06692 -0.607852 0.0247156)
(1.99207 -0.811931 0.0263383)
(1.90592 -1.00559 0.0297398)
(1.78508 -1.18901 0.0293757)
(1.68196 -1.35853 0.0362319)
(1.49511 -1.51609 0.031406)
(1.41542 -1.65436 0.0489474)
(1.09451 -1.78195 0.0341132)
(1.10919 -1.88132 0.0896161)
(0.422793 -1.97716 0.0503075)
(0.596165 -2.03034 0.242999)
(-0.997031 -2.06327 -0.290241)
(0.0280673 -2.08423 0.492102)
(0.72636 2.07223 -0.41894)
(1.83848 2.06049 0.187601)
(0.507037 2.00829 0.0546061)
(1.21777 1.9402 0.165647)
(0.752387 1.82291 0.0408288)
(1.25562 1.70857 0.0562349)
(1.21292 1.56041 0.0212411)
(1.49589 1.40513 0.0282256)
(1.56644 1.2312 0.0183436)
(1.72201 1.04887 0.0196981)
(1.7976 0.856536 0.0162977)
(1.87801 0.658837 0.0166083)
(1.92295 0.456741 0.0163645)
(1.95133 0.25255 0.0176166)
(1.95632 0.0479017 0.0196696)
(1.94557 -0.154861 0.022559)
(1.91627 -0.353581 0.0251827)
(1.87078 -0.546351 0.0279449)
(1.80394 -0.731709 0.0295233)
(1.72753 -0.90797 0.0330596)
(1.61701 -1.07459 0.0330228)
(1.52695 -1.22826 0.039987)
(1.35212 -1.37146 0.0351345)
(1.29026 -1.49653 0.0533541)
(0.98035 -1.61236 0.0376915)
(1.01714 -1.70164 0.0950367)
(0.33554 -1.78856 0.0526295)
(0.53026 -1.83547 0.248971)
(-1.03425 -1.86411 -0.297546)
(0.00575064 -1.88468 0.49689)
(0.721797 1.85485 -0.415818)
(1.81631 1.84355 0.194253)
(0.474678 1.79884 0.0515219)
(1.14822 1.7384 0.170757)
(0.649142 1.63445 0.0453285)
(1.13606 1.53486 0.0617459)
(1.06709 1.40339 0.0260176)
(1.34002 1.2666 0.0331617)
(1.39455 1.1117 0.0231294)
(1.54323 0.949444 0.0246956)
(1.61076 0.7773 0.0208252)
(1.68762 0.599605 0.0207734)
(1.73004 0.417401 0.0201921)
(1.75838 0.233 0.0213347)
(1.76499 0.0479094 0.0232953)
(1.75746 -0.135737 0.0259926)
(1.73245 -0.316011 0.0285438)
(1.69258 -0.490957 0.0313257)
(1.63264 -0.65939 0.0329831)
(1.56472 -0.819476 0.0366324)
(1.46341 -0.970767 0.0365204)
(1.38618 -1.11017 0.0439583)
(1.22175 -1.24026 0.0388377)
(1.17688 -1.35335 0.0578237)
(0.876082 -1.45859 0.0410297)
(0.933406 -1.53879 0.100221)
(0.255588 -1.61786 0.0550598)
(0.469637 -1.65923 0.254692)
(-1.06814 -1.68428 -0.304014)
(-0.0147261 -1.70355 0.501302)
(0.717435 1.66185 -0.412995)
(1.79681 1.65096 0.200218)
(0.447165 1.61222 0.0488279)
(1.08833 1.55849 0.175594)
(0.559729 1.46606 0.0496005)
(1.0315 1.37889 0.0669646)
(0.938717 1.26207 0.0305893)
(1.20237 1.14107 0.0380111)
(1.24177 1.00304 0.0280082)
(1.38362 0.858293 0.0297923)
(1.44316 0.704109 0.025673)
(1.51631 0.544722 0.0256976)
(1.55585 0.380776 0.0249772)
(1.58395 0.214418 0.0258857)
(1.59176 0.0469593 0.0274475)
(1.58652 -0.119362 0.0298664)
(1.56511 -0.282672 0.0321074)
(1.53026 -0.441345 0.0348131)
(1.47652 -0.594179 0.0364104)
(1.41672 -0.739505 0.0403407)
(1.32395 -0.876895 0.0402093)
(1.25817 -1.00332 0.0478638)
(1.10336 -1.12139 0.0426079)
(1.07373 -1.22363 0.0620786)
(0.781131 -1.31925 0.0441282)
(0.857212 -1.39138 0.105321)
(0.182569 -1.46354 0.0573246)
(0.413725 -1.49985 0.26007)
(-1.099 -1.52176 -0.309545)
(-0.0337767 -1.5394 0.505314)
(0.713401 1.49024 -0.410394)
(1.7797 1.47969 0.20557)
(0.423581 1.44566 0.0463652)
(1.03665 1.39794 0.179972)
(0.481755 1.3152 0.0537995)
(0.939752 1.23891 0.0720564)
(0.825358 1.13468 0.0348172)
(1.08063 1.02765 0.0427306)
(1.10588 0.904255 0.0328244)
(1.24136 0.775024 0.0348696)
(1.29298 0.636724 0.0305252)
(1.36242 0.493614 0.0305371)
(1.39898 0.346022 0.0297065)
(1.42641 0.196037 0.0304717)
(1.43521 0.0449218 0.0318432)
(1.43152 -0.105481 0.0340002)
(1.4135 -0.253416 0.036092)
(1.38304 -0.397209 0.0387074)
(1.33495 -0.535802 0.0402302)
(1.28242 -0.667454 0.0442236)
(1.1973 -0.7921 0.0439807)
(1.14192 -0.906477 0.0518113)
(0.995464 -1.01368 0.0461565)
(0.980193 -1.10606 0.066059)
(0.694559 -1.19312 0.0470197)
(0.788114 -1.25803 0.110382)
(0.115667 -1.32394 0.059384)
(0.362315 -1.35562 0.265005)
(-1.12716 -1.37495 -0.31445)
(-0.0518003 -1.39072 0.508968)
(0.709772 1.33737 -0.407977)
(1.76461 1.32709 0.210369)
(0.403265 1.29694 0.0441473)
(0.992041 1.25444 0.183964)
(0.413563 1.17991 0.0576412)
(0.858864 1.11316 0.0770728)
(0.724972 1.02004 0.038961)
(0.972774 0.925206 0.0472571)
(0.984886 0.814835 0.0373981)
(1.11466 0.699368 0.039829)
(1.15868 0.575223 0.0353128)
(1.22445 0.446658 0.0353844)
(1.25783 0.31374 0.0344253)
(1.28445 0.178536 0.0351173)
(1.29359 0.0420852 0.0362409)
(1.29157 -0.0938456 0.0381833)
(1.27619 -0.227679 0.0400211)
(1.24974 -0.357818 0.0425765)
(1.20651 -0.483305 0.0440024)
(1.16061 -0.602439 0.0481115)
(1.08217 -0.715316 0.0476653)
(1.03636 -0.818877 0.055646)
(0.897312 -0.916127 0.0494263)
(0.89536 -0.999702 0.0698525)
(0.615877 -1.07905 0.0500584)
(0.725564 -1.13752 0.114995)
(0.0542181 -1.19773 0.0613297)
(0.315065 -1.22511 0.269434)
(-1.15288 -1.24228 -0.318695)
(-0.068839 -1.25615 0.512188)
(0.706532 1.20099 -0.405678)
(1.75129 1.19094 0.214713)
(0.385783 1.16392 0.0420996)
(0.953553 1.12602 0.18759)
(0.353718 1.05846 0.0609539)
(0.78739 1.00007 0.0820603)
(0.635653 0.91674 0.043023)
(0.877022 0.832774 0.0518635)
(0.877 0.733941 0.0416557)
(1.0017 0.630733 0.0444607)
(1.03857 0.519248 0.0398843)
(1.1009 0.403696 0.0400741)
(1.13113 0.283984 0.0390216)
(1.15669 0.162068 0.0395981)
(1.16592 0.0389589 0.0405485)
(1.16515 -0.0837799 0.0423032)
(1.15204 -0.204662 0.0439787)
(1.12899 -0.322283 0.0464369)
(1.09006 -0.435766 0.0477343)
(1.05004 -0.543503 0.051841)
(0.977573 -0.645775 0.0511185)
(0.940634 -0.739536 0.0592969)
(0.808031 -0.827901 0.0525283)
(0.81871 -0.903537 0.0737048)
(0.544458 -0.976075 0.0530352)
(0.669041 -1.02851 0.119187)
(-0.00236625 -1.0837 0.0631455)
(0.271687 -1.10717 0.273321)
(-1.17649 -1.12232 -0.322221)
(-0.0848992 -1.13442 0.514992)
(0.703677 1.07909 -0.403428)
(1.73945 1.06928 0.218783)
(0.370786 1.04488 0.0401719)
(0.920445 1.01097 0.190734)
(0.301008 0.949478 0.0637355)
(0.724291 0.898293 0.0865509)
(0.55586 0.82356 0.0470725)
(0.791648 0.749291 0.0564691)
(0.780575 0.660834 0.0459361)
(0.900932 0.568657 0.0488906)
(0.931045 0.468515 0.0441228)
(0.990216 0.364737 0.0444664)
(1.01732 0.256946 0.0433511)
(1.04183 0.147123 0.0439031)
(1.05083 0.0360816 0.0446829)
(1.05104 -0.0746743 0.0462645)
(1.03971 -0.183872 0.0477393)
(1.01967 -0.290141 0.0500922)
(0.984478 -0.392795 0.0512043)
(0.949871 -0.49023 0.0553175)
(0.88261 -0.582949 0.0543402)
(0.853948 -0.667857 0.0628577)
(0.727111 -0.74831 0.0556558)
(0.749729 -0.816814 0.0775951)
(0.47974 -0.883124 0.0555529)
(0.617916 -0.929934 0.122897)
(-0.0547098 -0.9808 0.0650757)
(0.23171 -1.00056 0.276758)
(-1.19828 -1.01388 -0.325366)
(-0.10001 -1.02439 0.517444)
(0.701108 0.969977 -0.401155)
(1.72885 0.960553 0.222786)
(0.357991 0.938257 0.0382507)
(0.892049 0.907871 0.193456)
(0.254488 0.851447 0.0658918)
(0.668546 0.80676 0.0905643)
(0.484557 0.739346 0.050733)
(0.715344 0.673748 0.0610482)
(0.69399 0.59456 0.0501412)
(0.810738 0.512365 0.0534239)
(0.834718 0.422511 0.048352)
(0.891049 0.329324 0.0486194)
(0.915127 0.23233 0.0473317)
(0.938466 0.133433 0.0478415)
(0.947095 0.0333626 0.0484919)
(0.948018 -0.0665371 0.0499214)
(0.93821 -0.165093 0.0512374)
(0.920781 -0.261097 0.0534931)
(0.88887 -0.353954 0.0544661)
(0.859129 -0.442147 0.0587051)
(0.796568 -0.526309 0.0576056)
(0.775771 -0.603294 0.066422)
(0.654014 -0.676641 0.0587867)
(0.687696 -0.738637 0.0810363)
(0.420897 -0.799088 0.0577037)
(0.571983 -0.840705 0.126273)
(-0.1034 -0.887846 0.067247)
(0.194878 -0.904095 0.279876)
(-1.21849 -0.915775 -0.328257)
(-0.114093 -0.924844 0.519602)
(0.698498 0.872114 -0.39919)
(1.71939 0.863231 0.226914)
(0.347167 0.842918 0.0362917)
(0.867974 0.815625 0.195792)
(0.213055 0.763656 0.0672023)
(0.619408 0.724643 0.0940678)
(0.420916 0.663525 0.0537854)
(0.647163 0.605345 0.0652859)
(0.616076 0.53443 0.0541619)
(0.729752 0.461203 0.0578005)
(0.748025 0.380697 0.052631)
(0.802002 0.297189 0.0529914)
(0.823284 0.209971 0.0515077)
(0.845555 0.120973 0.0518598)
(0.853656 0.0307846 0.0523003)
(0.855108 -0.0593052 0.0535956)
(0.846509 -0.148304 0.054815)
(0.831404 -0.235062 0.0570904)
(0.802425 -0.319151 0.0580272)
(0.777313 -0.399039 0.0623238)
(0.718946 -0.475526 0.0610227)
(0.705576 -0.545335 0.0700863)
(0.587947 -0.612184 0.0618668)
(0.631898 -0.667993 0.0841345)
(0.367062 -0.722946 0.0598439)
(0.530666 -0.759574 0.129278)
(-0.14859 -0.800983 0.0690893)
(0.161218 -0.816417 0.282678)
(-1.23723 -0.826974 -0.330873)
(-0.127212 -0.834766 0.521744)
(0.695823 0.784182 -0.397505)
(1.71116 0.775832 0.23066)
(0.337637 0.757727 0.034445)
(0.847552 0.733589 0.197885)
(0.176165 0.686195 0.0678215)
(0.576401 0.651327 0.0970422)
(0.364098 0.59552 0.0569841)
(0.586437 0.543598 0.0690071)
(0.545907 0.479801 0.0583925)
(0.6569 0.41455 0.0623494)
(0.66979 0.34238 0.0570362)
(0.721711 0.267607 0.0574979)
(0.740415 0.189299 0.0559601)
(0.761733 0.109286 0.0562682)
(0.769336 0.0280609 0.0565832)
(0.77126 -0.0531835 0.0577648)
(0.763768 -0.133575 0.0588462)
(0.750808 -0.212048 0.0610472)
(0.724498 -0.288256 0.0618216)
(0.703657 -0.360686 0.0661695)
(0.649006 -0.430221 0.064692)
(0.642402 -0.493442 0.073732)
(0.528211 -0.554187 0.0646251)
(0.581187 -0.60412 0.0870591)
(0.317231 -0.653912 0.061929)
(0.490167 -0.685809 0.13182)
(-0.18624 -0.72148 0.0653424)
(0.131133 -0.736943 0.284937)
(-1.25452 -0.746625 -0.333221)
(-0.139356 -0.753344 0.523878)
(0.693244 0.705294 -0.395973)
(1.70403 0.697665 0.233192)
(0.328188 0.681587 0.0327612)
(0.828331 0.661254 0.200585)
(0.145177 0.620587 0.071266)
(0.539696 0.586431 0.100199)
(0.313624 0.534469 0.059592)
(0.532597 0.488045 0.0725005)
(0.482922 0.430209 0.0619296)
(0.591507 0.37196 0.066717)
(0.599184 0.307181 0.0613997)
(0.649316 0.240216 0.0619555)
(0.66555 0.169869 0.0602699)
(0.686058 0.0979698 0.0605232)
(0.693203 0.0248382 0.060726)
(0.695597 -0.0484104 0.0617949)
(0.689126 -0.121029 0.0627262)
(0.678182 -0.191989 0.0648898)
(0.654249 -0.261037 0.0655441)
(0.637372 -0.326604 0.0698985)
(0.585851 -0.389724 0.0679208)
(0.585612 -0.446729 0.0768287)
(0.473692 -0.501773 0.0667657)
(0.535247 -0.546293 0.0898402)
(0.271121 -0.591323 0.0634645)
(0.454061 -0.618998 0.134322)
(-0.221388 -0.650279 0.0608127)
(0.104087 -0.664004 0.287081)
(-1.27034 -0.674092 -0.335308)
(-0.150456 -0.679817 0.525896)
(0.690803 0.634553 -0.39461)
(1.69747 0.627796 0.235029)
(0.318394 0.613308 0.0309784)
(0.808571 0.596391 0.20317)
(0.120441 0.562681 0.0730011)
(0.508704 0.528101 0.103061)
(0.268914 0.479691 0.0617515)
(0.484949 0.438001 0.0753434)
(0.426521 0.385569 0.0649618)
(0.533035 0.333303 0.0704319)
(0.535628 0.274949 0.0652852)
(0.584128 0.214908 0.066195)
(0.598052 0.151685 0.0644713)
(0.617811 0.0870324 0.064724)
(0.624501 0.02118 0.0648086)
(0.627361 -0.0448407 0.0657817)
(0.621826 -0.11038 0.0665865)
(0.612721 -0.174476 0.0686516)
(0.590908 -0.236939 0.0690645)
(0.57769 -0.29619 0.0732133)
(0.528793 -0.353267 0.070636)
(0.534206 -0.404528 0.0794472)
(0.423999 -0.45431 0.0687633)
(0.493361 -0.49391 0.0921795)
(0.22817 -0.534579 0.0647942)
(0.420272 -0.557951 0.13665)
(-0.253079 -0.584021 0.0569616)
(0.0792114 -0.598319 0.288329)
(-1.28399 -0.608239 -0.337111)
(-0.160433 -0.613362 0.52779)
(0.688453 0.571005 -0.393365)
(1.69138 0.565057 0.23684)
(0.308944 0.551863 0.0290148)
(0.789701 0.537024 0.205248)
(0.0995648 0.506223 0.0713639)
(0.482268 0.474851 0.105422)
(0.229163 0.430215 0.0634614)
(0.442748 0.393023 0.0777107)
(0.375992 0.3454 0.0674276)
(0.480853 0.298547 0.0736167)
(0.478617 0.245845 0.0685754)
(0.525635 0.191832 0.0698245)
(0.537231 0.134873 0.0682074)
(0.556306 0.0767131 0.0685905)
(0.562557 0.0174038 0.0686364)
(0.565853 -0.0420933 0.0695188)
(0.561167 -0.101223 0.0701168)
(0.553764 -0.159053 0.0719722)
(0.533774 -0.21543 0.0719914)
(0.523794 -0.268776 0.0759839)
(0.47699 -0.320319 0.0729778)
(0.487714 -0.366304 0.0818406)
(0.378571 -0.411374 0.0703369)
(0.455289 -0.446617 0.0941884)
(0.187858 -0.483508 0.0660167)
(0.387761 -0.503128 0.139133)
(-0.280903 -0.524758 0.0554783)
(0.0576059 -0.539265 0.289634)
(-1.29643 -0.548946 -0.33876)
(-0.169411 -0.553326 0.529546)
(0.686523 0.513926 -0.392574)
(1.68589 0.508778 0.23859)
(0.300241 0.496798 0.0268555)
(0.773758 0.483293 0.207078)
(0.0807383 0.45479 0.0698203)
(0.459505 0.426667 0.107408)
(0.193654 0.385637 0.0648589)
(0.405379 0.352514 0.079592)
(0.330615 0.309296 0.0694886)
(0.434241 0.267335 0.0763296)
(0.427461 0.219717 0.0713182)
(0.473255 0.171089 0.0728787)
(0.482647 0.119697 0.0713177)
(0.501065 0.0672859 0.0717677)
(0.506817 0.0138337 0.071756)
(0.510431 -0.0397668 0.0725565)
(0.506427 -0.0930384 0.0730126)
(0.500499 -0.14511 0.0747536)
(0.482046 -0.195916 0.0745582)
(0.475026 -0.243889 0.0785035)
(0.429908 -0.290403 0.0750441)
(0.445662 -0.331683 0.083799)
(0.337153 -0.372558 0.0715496)
(0.420821 -0.403953 0.0958315)
(0.150325 -0.437542 0.0670331)
(0.35714 -0.45425 0.141316)
(-0.30566 -0.473084 0.0558176)
(0.0382718 -0.486346 0.290872)
(-1.30785 -0.495567 -0.340245)
(-0.177596 -0.499126 0.531171)
(0.685146 0.462621 -0.392099)
(1.68098 0.458166 0.240292)
(0.292152 0.447336 0.0248673)
(0.760307 0.434914 0.208754)
(0.0639291 0.408605 0.0684948)
(0.439949 0.383251 0.109169)
(0.161889 0.345428 0.0659136)
(0.372255 0.316055 0.0811338)
(0.289913 0.276853 0.0711105)
(0.392563 0.239314 0.0786399)
(0.381459 0.196323 0.073692)
(0.426252 0.152605 0.0755344)
(0.433581 0.10626 0.0739812)
(0.45141 0.059024 0.0745094)
(0.456632 0.0108289 0.0744586)
(0.460479 -0.0374596 0.0752228)
(0.456998 -0.0854519 0.0755684)
(0.452354 -0.132324 0.0772328)
(0.435175 -0.178103 0.0767877)
(0.430899 -0.221277 0.0806116)
(0.387187 -0.263319 0.0766818)
(0.40773 -0.300381 0.0853547)
(0.299481 -0.337508 0.0724108)
(0.38977 -0.365467 0.0972239)
(0.115528 -0.396167 0.0678797)
(0.329237 -0.410292 0.143127)
(-0.328599 -0.427117 0.0554408)
(0.0207465 -0.438759 0.291913)
(-1.3184 -0.447476 -0.341554)
(-0.185076 -0.450212 0.532648)
(0.683902 0.41649 -0.391729)
(1.67654 0.412661 0.24192)
(0.284847 0.403121 0.0231584)
(0.748335 0.391098 0.21024)
(0.0493661 0.367076 0.0672581)
(0.423361 0.34417 0.110702)
(0.133333 0.309179 0.0666053)
(0.342917 0.283244 0.0823207)
(0.253251 0.247632 0.0723715)
(0.355398 0.214161 0.0805399)
(0.340082 0.1753 0.0756104)
(0.384092 0.136031 0.0777766)
(0.389389 0.0942267 0.0762463)
(0.406694 0.0517065 0.0768633)
(0.411362 0.00828568 0.0767751)
(0.415392 -0.0352009 0.0774935)
(0.412339 -0.0784402 0.0777184)