/*--------------------------------*- C++ -*----------------------------------*\
  =========                 |
  \\      /  F ield         | OpenFOAM: The Open Source CFD Toolbox
   \\    /   O peration     | Website:  https://openfoam.org
    \\  /    A nd           | Version:  10
     \\/     M anipulation  |
\*---------------------------------------------------------------------------*/
FoamFile
{
    format      ascii;
    class       volVectorField;
    location    "0.05";
    object      U_0;
}
// * * * * * * * * * * * * * * * * * * * * * * * * * * * * * * * * * * * * * //

dimensions      [0 1 -1 0 0 0 0];

internalField   nonuniform List<vector> 
116798
(
(1.12565 -6.67555 -0.381584)
(-2.93409 8.29187 -5.51798)
(-0.773068 8.8485 -5.3279)
(2.12645 7.17563 -4.51516)
(4.55218 5.3892 -3.64832)
(6.41603 3.9397 -2.91244)
(7.69492 2.87431 -2.32829)
(8.47598 2.11952 -1.87092)
(8.90711 1.56291 -1.50289)
(9.12917 1.10341 -1.18742)
(9.23936 0.672527 -0.89791)
(9.29036 0.230642 -0.617452)
(9.3146 -0.242396 -0.331258)
(9.33965 -0.775153 -0.065183)
(9.32927 -1.37167 0.195593)
(9.27962 -2.00354 0.437129)
(9.1828 -2.64907 0.666715)
(9.05099 -3.29323 0.891613)
(8.89222 -3.93738 1.11935)
(8.70699 -4.59356 1.3549)
(8.4866 -5.27745 1.60078)
(8.21874 -6.00336 1.8589)
(7.8793 -6.78757 2.1309)
(7.44971 -7.64083 2.41947)
(6.86799 -8.57834 2.72469)
(6.12725 -9.59176 3.05066)
(5.02589 -10.6797 3.38315)
(3.6799 -11.7468 3.73472)
(1.15931 -12.7301 3.92951)
(-0.936553 -12.1686 4.3532)
(-1.54986 5.35024 -2.79634)
(-0.679095 12.7465 -4.00257)
(2.99206 10.2547 -3.11083)
(5.52884 8.12217 -2.48556)
(7.39827 6.51217 -1.94587)
(8.59124 5.32523 -1.47699)
(9.23348 4.43196 -1.08946)
(9.52127 3.69555 -0.779749)
(9.61083 3.026 -0.535817)
(9.60159 2.37788 -0.343424)
(9.53951 1.73265 -0.19381)
(9.44274 1.08277 -0.0808536)
(9.31332 0.422608 0.00255128)
(9.188 -0.223986 0.0627891)
(9.05727 -0.873623 0.0868612)
(8.92276 -1.51921 0.1053)
(8.78776 -2.15452 0.129068)
(8.6428 -2.78196 0.157494)
(8.47567 -3.41085 0.188049)
(8.27702 -4.05067 0.220822)
(8.03403 -4.7103 0.254395)
(7.73848 -5.39538 0.289342)
(7.36304 -6.1127 0.32335)
(6.9042 -6.8593 0.362001)
(6.28582 -7.63711 0.395066)
(5.55148 -8.41524 0.444642)
(4.4595 -9.17934 0.469172)
(3.29817 -9.80798 0.554215)
(1.19362 -10.2443 0.448801)
(0.450655 -9.88132 0.759772)
(-0.418672 11.4582 -1.77251)
(2.21122 15.4117 -2.46371)
(5.58503 11.9974 -1.68974)
(7.54784 9.37576 -1.1855)
(8.72927 7.51104 -0.765024)
(9.27361 6.13131 -0.428566)
(9.41831 5.03184 -0.198875)
(9.38451 4.08483 -0.0588973)
(9.27996 3.23285 0.0144993)
(9.15754 2.45136 0.0451323)
(9.03007 1.72815 0.0511339)
(8.90081 1.05168 0.0463817)
(8.76585 0.409778 0.0420141)
(8.63664 -0.205925 0.0441591)
(8.51372 -0.806831 0.0435791)
(8.38157 -1.40242 0.0473581)
(8.24202 -1.99829 0.0540304)
(8.08657 -2.59855 0.0593115)
(7.90212 -3.20828 0.0645326)
(7.68193 -3.83139 0.070276)
(7.41334 -4.47107 0.0764141)
(7.09232 -5.12738 0.084526)
(6.68917 -5.80111 0.091128)
(6.21686 -6.4832 0.103895)
(5.58655 -7.16801 0.108648)
(4.89783 -7.82164 0.13467)
(3.85802 -8.42351 0.13215)
(2.92421 -8.88299 0.207111)
(1.0407 -9.19376 0.0718058)
(0.702926 -9.15559 0.42876)
(0.340091 14.1205 -1.44195)
(3.50844 15.0425 -1.68679)
(6.74699 12.113 -0.990154)
(8.20886 9.53609 -0.459067)
(8.76878 7.64933 -0.130095)
(8.88152 6.21125 0.0299876)
(8.79933 5.06598 0.0739175)
(8.6862 4.10297 0.0740207)
(8.57064 3.26281 0.0584214)
(8.4675 2.50672 0.0424399)
(8.36822 1.81026 0.0305555)
(8.26852 1.15505 0.0242855)
(8.15989 0.526984 0.0232676)
(8.04423 -0.0832368 0.0283707)
(7.92951 -0.683603 0.0284798)
(7.79865 -1.27714 0.0296717)
(7.65659 -1.86759 0.0312706)
(7.49396 -2.45808 0.0320531)
(7.29984 -3.052 0.0320853)
(7.06762 -3.65189 0.0326488)
(6.78525 -4.25972 0.0332659)
(6.45397 -4.87381 0.0356095)
(6.03965 -5.49331 0.0353251)
(5.5745 -6.10689 0.0427766)
(4.95143 -6.70851 0.0394207)
(4.32896 -7.26511 0.0620513)
(3.34161 -7.76617 0.0525951)
(2.60515 -8.13919 0.13235)
(0.793952 -8.42546 -0.0430653)
(0.727835 -8.4473 0.357316)
(1.02957 14.0571 -1.17842)
(3.73431 13.4428 -0.980322)
(6.31059 11.3351 -0.433729)
(7.46655 9.11762 -0.0370596)
(7.81631 7.413 0.0717808)
(7.9048 6.0757 0.08215)
(7.87469 4.99735 0.0552735)
(7.8471 4.08049 0.0380196)
(7.80285 3.27303 0.0247274)
(7.75887 2.53947 0.0175511)
(7.7041 1.8586 0.0144144)
(7.63822 1.21558 0.0140507)
(7.55507 0.599301 0.0158197)
(7.45493 -0.00309068 0.0211235)
(7.35022 -0.57875 0.0227022)
(7.22557 -1.14925 0.0240049)
(7.08517 -1.71441 0.0249152)
(6.92062 -2.2775 0.0246598)
(6.72219 -2.84124 0.0232975)
(6.48504 -3.40664 0.0222458)
(6.19765 -3.97402 0.0209082)
(5.86571 -4.54007 0.0222543)
(5.45319 -5.10219 0.0201085)
(5.00764 -5.64867 0.026638)
(4.40562 -6.17394 0.0209641)
(3.85163 -6.64935 0.0442314)
(2.91502 -7.07244 0.0316404)
(2.32364 -7.38681 0.121266)
(0.544945 -7.64835 -0.080421)
(0.657417 -7.69593 0.357535)
(1.12823 12.2466 -0.888687)
(3.44237 11.6046 -0.431981)
(4.9864 10.096 -0.0891427)
(6.13976 8.40901 0.0798027)
(6.55714 7.03068 0.0538152)
(6.8267 5.86938 0.0423612)
(6.9331 4.89108 0.020662)
(7.01877 4.03352 0.0162625)
(7.0522 3.26469 0.0111699)
(7.0674 2.5586 0.00970847)
(7.0551 1.89946 0.00900795)
(7.02142 1.27514 0.00981065)
(6.96251 0.676543 0.0116874)
(6.87816 0.0959084 0.0156937)
(6.78501 -0.467867 0.0189096)
(6.6674 -1.02031 0.0207236)
(6.5315 -1.56419 0.0218859)
(6.36947 -2.10225 0.0216884)
(6.17226 -2.63641 0.020176)
(5.9368 -3.16691 0.0189826)
(5.65175 -3.69343 0.0170058)
(5.32724 -4.21207 0.0177577)
(4.9254 -4.72016 0.0149803)
(4.50661 -5.20623 0.0214773)
(3.93095 -5.6669 0.0138388)
(3.44433 -6.07676 0.0389841)
(2.54947 -6.44025 0.0239442)
(2.07988 -6.70709 0.12403)
(0.312139 -6.94271 -0.111896)
(0.585636 -6.98233 0.36692)
(0.875779 10.2042 -0.647173)
(2.9622 9.87149 -0.148463)
(3.63293 8.79726 0.0369039)
(4.94231 7.6269 0.0804885)
(5.40966 6.55378 0.0198847)
(5.84767 5.57343 0.0210758)
(6.05781 4.70392 0.00574296)
(6.23931 3.91632 0.00772779)
(6.33648 3.19611 0.00510804)
(6.40359 2.52683 0.00560343)
(6.42917 1.89773 0.00536337)
(6.42542 1.29954 0.00641137)
(6.38964 0.725295 0.00820248)
(6.3215 0.169308 0.0117928)
(6.24249 -0.371178 0.0157673)
(6.13335 -0.898531 0.0181302)
(6.00469 -1.41502 0.0197564)
(5.84849 -1.9232 0.0198727)
(5.65648 -2.42435 0.0184882)
(5.42737 -2.91814 0.0173819)
(5.15 -3.40376 0.0151706)
(4.83901 -3.87695 0.0158171)
(4.45261 -4.33539 0.0125272)
(4.06506 -4.76816 0.0195216)
(3.51808 -5.174 0.0109207)
(3.09455 -5.52955 0.0386212)
(2.23529 -5.84476 0.022757)
(1.86503 -6.07402 0.132419)
(0.103674 -6.28487 -0.133034)
(0.50884 -6.31706 0.382309)
(0.723082 8.52521 -0.518938)
(2.57853 8.36055 -0.0178842)
(2.62822 7.62776 0.0749309)
(4.04229 6.84316 0.0764407)
(4.46007 6.01014 0.00378901)
(5.00723 5.20159 0.0136716)
(5.27181 4.44731 -0.00101678)
(5.52393 3.74151 0.00397689)
(5.66775 3.0815 0.00147097)
(5.77729 2.45915 0.00303766)
(5.83444 1.86841 0.00315784)
(5.85704 1.30321 0.00400565)
(5.84241 0.758539 0.00550543)
(5.79138 0.229545 0.00877149)
(5.72381 -0.284829 0.0130487)
(5.62541 -0.784338 0.0158771)
(5.50589 -1.27301 0.0179756)
(5.35794 -1.75147 0.0184797)
(5.1742 -2.22031 0.0173559)
(4.95503 -2.67881 0.0165258)
(4.68922 -3.12599 0.0142812)
(4.39547 -3.55757 0.0152706)
(4.02802 -3.97174 0.0114695)
(3.67358 -4.35836 0.0191569)
(3.15527 -4.71795 0.00976777)
(2.79061 -5.02908 0.0401904)
(1.96118 -5.30527 0.0229553)
(1.6769 -5.50265 0.142295)
(-0.0816982 -5.69067 -0.154508)
(0.438702 -5.71254 0.397196)
(0.685619 7.2235 -0.471854)
(2.33972 7.12771 0.0441749)
(1.95919 6.63098 0.0891476)
(3.38101 6.09846 0.0806192)
(3.69382 5.44882 -0.00204685)
(4.30101 4.79118 0.0117482)
(4.5813 4.14698 -0.00454579)
(4.88013 3.52534 0.0021106)
(5.05364 2.93006 -0.000863861)
(5.19509 2.35967 0.00126701)
(5.27662 1.81197 0.00133146)
(5.32106 1.28397 0.0023381)
(5.32473 0.772751 0.0034249)
(5.2918 0.27531 0.00620814)
(5.23144 -0.209263 0.0105772)
(5.14655 -0.680295 0.0139833)
(5.03724 -1.13956 0.0165009)
(4.89912 -1.58729 0.0174055)
(4.72571 -2.02375 0.0166103)
(4.5189 -2.44791 0.0161443)
(4.26718 -2.85874 0.0139896)
(3.99307 -3.25204 0.0153357)
(3.6463 -3.62653 0.0113172)
(3.32537 -3.97283 0.0199135)
(2.83493 -4.29289 0.0100952)
(2.52435 -4.5667 0.0432169)
(1.72091 -4.81056 0.0247279)
(1.5103 -4.98166 0.152878)
(-0.24654 -5.14961 -0.173429)
(0.37257 -5.1639 0.412101)
(0.689106 6.20637 -0.456033)
(2.19721 6.14104 0.0774361)
(1.51787 5.7924 0.0948982)
(2.88649 5.41823 0.0905444)
(3.07928 4.90567 -0.00257146)
(3.71289 4.37317 0.0125358)
(3.98231 3.82691 -0.00608832)
(4.30865 3.28556 0.00148204)
(4.49701 2.75493 -0.00211198)
(4.66053 2.23821 0.000222427)
(4.7592 1.7359 9.10479e-05)
(4.82075 1.24753 0.00110899)
(4.83937 0.771946 0.00217274)
(4.82094 0.307689 0.00446114)
(4.77106 -0.145634 0.00885863)
(4.69793 -0.587032 0.0125263)
(4.59906 -1.01646 0.0153297)
(4.47165 -1.43378 0.0165996)
(4.30986 -1.83887 0.0161481)
(4.11693 -2.23046 0.0161056)
(3.8808 -2.60753 0.0141135)
(3.62757 -2.96606 0.0159686)
(3.30215 -3.30533 0.0118235)
(3.01424 -3.61644 0.0214394)
(2.55011 -3.90267 0.0112299)
(2.28929 -4.14502 0.0470585)
(1.50855 -4.36195 0.0269836)
(1.36282 -4.51082 0.16327)
(-0.392727 -4.66014 -0.191332)
(0.312578 -4.66836 0.426073)
(0.702848 5.39005 -0.448772)
(2.11045 5.34124 0.0986099)
(1.21963 5.08445 0.0972499)
(2.50755 4.81153 0.101762)
(2.58478 4.40028 -0.000906584)
(3.22385 3.9676 0.0149966)
(3.46608 3.5048 -0.00612574)
(3.80598 3.03618 0.00179687)
(3.99688 2.56656 -0.00254674)
(4.17424 2.10228 -0.000165767)
(4.28358 1.64534 -0.000639444)
(4.35765 1.1972 0.000388103)
(4.38796 0.758026 0.00136907)
(4.38156 0.327578 0.00348767)
(4.3422 -0.0938081 0.00778514)
(4.27991 -0.504778 0.0115212)
(4.19141 -0.904201 0.0145157)
(4.07507 -1.29151 0.0161158)
(3.92555 -1.66623 0.0160145)
(3.74725 -2.02691 0.0164338)
(3.52746 -2.37255 0.0146835)
(3.2955 -2.69937 0.0171328)
(2.99125 -3.00717 0.0129597)
(2.7352 -3.28717 0.0236802)
(2.29559 -3.54402 0.0131077)
(2.08075 -3.75959 0.0517069)
(1.31976 -3.9536 0.0298025)
(1.23117 -4.08393 0.173649)
(-0.522562 -4.21538 -0.207573)
(0.257469 -4.22077 0.43921)
(0.717798 4.71815 -0.444142)
(2.05577 4.67967 0.114033)
(1.01062 4.48198 0.098309)
(2.21086 4.275 0.113186)
(2.18406 3.93997 0.00345257)
(2.81544 3.58527 0.0187272)
(3.02217 3.19228 -0.00501238)
(3.36567 2.78751 0.00284375)
(3.55063 2.37361 -0.00243689)
(3.73502 1.9587 -4.34171e-06)
(3.84948 1.54563 -0.000774703)
(3.93203 1.13703 0.000217625)
(3.97095 0.734006 0.00110653)
(3.97434 0.337214 0.00319937)
(3.94467 -0.0522667 0.00737569)
(3.8923 -0.433014 0.0110014)
(3.81375 -0.802889 0.0140911)
(3.70842 -1.16107 0.0159744)
(3.5713 -1.50675 0.0162025)
(3.40785 -1.83831 0.0171086)
(3.20445 -2.15485 0.0156132)
(2.9936 -2.45273 0.0187555)
(2.70982 -2.73213 0.0145456)
(2.48412 -2.98486 0.0264788)
(2.06727 -3.21634 0.0154791)
(1.89498 -3.40871 0.0569135)
(1.15108 -3.58316 0.0328832)
(1.11306 -3.6985 0.184213)
(-0.637772 -3.80975 -0.223809)
(0.20781 -3.81635 0.451229)
(0.731019 4.15423 -0.440734)
(2.01946 4.12287 0.126342)
(0.859578 3.96708 0.0982691)
(1.97478 3.80297 0.124028)
(1.85619 3.52537 0.00881777)
(2.47226 3.2316 0.0233629)
(2.63983 2.89628 -0.00288357)
(2.98074 2.54676 0.00478312)
(3.15425 2.18231 -0.00166659)
(3.34031 1.81306 0.000676505)
(3.45555 1.44119 -0.000359626)
(3.54308 1.07044 0.000588232)
(3.58794 0.702385 0.00139357)
(3.59908 0.338388 0.00341652)
(3.57796 -0.020618 0.00751507)
(3.53436 -0.37103 0.0109549)
(3.46521 -0.712152 0.0140854)
(3.37054 -1.04228 0.0162032)
(3.2456 -1.36031 0.0167375)
(3.09671 -1.66456 0.0181202)
(2.90944 -1.95414 0.0169073)
(2.71888 -2.2256 0.0207438)
(2.45476 -2.47952 0.0166718)
(2.25767 -2.70801 0.029695)
(1.86222 -2.91716 0.0183422)
(1.72854 -3.08941 0.0624265)
(0.99952 -3.24676 0.0365315)
(1.00797 -3.35006 0.196551)
(-0.724888 -3.438 -0.238858)
(0.164908 -3.45015 0.461756)
(0.740587 3.67419 -0.437916)
(1.99116 3.64934 0.137564)
(0.751096 3.52948 0.0956192)
(1.78406 3.38886 0.133879)
(1.58508 3.15405 0.0146966)
(2.1821 2.90843 0.0286359)
(2.30993 2.62035 0.00045158)
(2.64396 2.31796 0.00762712)
(2.8028 1.99732 0.000180949)
(2.98736 1.66928 0.0020511)
(3.09936 1.33547 0.000457466)
(3.18934 1.00027 0.00138213)
(3.23779 0.665492 0.00217334)
(3.25509 0.33299 0.00411521)
(3.24109 0.00311625 0.00789358)
(3.20494 -0.317767 0.0113531)
(3.14469 -0.631308 0.014507)
(3.06012 -0.934657 0.0168428)
(2.94679 -1.22658 0.0176608)
(2.81199 -1.50529 0.0195557)
(2.63999 -1.77004 0.0186495)
(2.46903 -2.01752 0.0233126)
(2.22326 -2.24856 0.0192723)
(2.05368 -2.45534 0.0333728)
(1.67753 -2.64485 0.0215622)
(1.57886 -2.79888 0.0679795)
(0.862216 -2.94091 0.0401441)
(0.912727 -3.03131 0.208594)
(-0.795205 -3.10275 -0.251904)
(0.12761 -3.11865 0.470902)
(0.745164 3.26073 -0.435386)
(1.96116 3.24073 0.149959)
(0.678714 3.14932 0.0880027)
(1.62718 3.02381 0.142101)
(1.35849 2.82241 0.0206335)
(1.93526 2.61498 0.0342086)
(2.02415 2.36595 0.00441684)
(2.34907 2.10347 0.0112337)
(2.49113 1.82126 0.00303907)
(2.67191 1.53014 0.00443584)
(2.7788 1.2309 0.00232066)
(2.86907 0.928732 0.00282605)
(2.91901 0.625212 0.00338674)
(2.9407 0.322647 0.00523856)
(2.93267 0.0223913 0.00858523)
(2.90323 -0.272254 0.0122244)
(2.8509 -0.559644 0.0153995)
(2.77563 -0.837701 0.01796)
(2.67328 -1.10513 0.0191511)
(2.5516 -1.36021 0.0216348)
(2.3944 -1.60228 0.0211686)
(2.24172 -1.82765 0.0263613)
(2.01391 -2.03793 0.0223975)
(1.86948 -2.22519 0.0373075)
(1.51064 -2.39668 0.0250067)
(1.44335 -2.53461 0.0736815)
(0.737503 -2.6631 0.043628)
(0.824533 -2.74204 0.218995)
(-0.856892 -2.80036 -0.262763)
(0.0942656 -2.81872 0.478991)
(0.744863 2.90052 -0.433281)
(1.93182 2.88321 0.162494)
(0.628725 2.80755 0.0766351)
(1.49712 2.70027 0.148936)
(1.16766 2.52627 0.0265084)
(1.72407 2.34978 0.0399107)
(1.77641 2.13302 0.00867011)
(2.09028 1.90428 0.0154103)
(2.21474 1.6557 0.00659315)
(2.39003 1.39724 0.00768614)
(2.49038 1.12994 0.00535914)
(2.57992 0.857892 0.0055855)
(2.62979 0.583287 0.00585619)
(2.65459 0.308472 0.00752215)
(2.65125 0.0352258 0.0104069)
(2.62768 -0.23385 0.0139691)
(2.58233 -0.496594 0.0171687)
(2.51557 -0.750904 0.019994)
(2.42338 -0.995508 0.0214959)
(2.31452 -1.22859 0.0243917)
(2.17064 -1.44962 0.0240083)
(2.03608 -1.65497 0.0299407)
(1.82399 -1.84624 0.0257424)
(1.70308 -2.01564 0.0416503)
(1.35877 -2.17084 0.028539)
(1.32068 -2.29444 0.0794663)
(0.623469 -2.41081 0.0466949)
(0.742436 -2.47975 0.227878)
(-0.911238 -2.52762 -0.272346)
(0.0644919 -2.54751 0.486152)
(0.74063 2.58421 -0.42955)
(1.90296 2.57081 0.173858)
(0.587332 2.50395 0.0671669)
(1.38777 2.41331 0.154907)
(1.00572 2.26225 0.0322057)
(1.54237 2.11068 0.0457037)
(1.56071 1.92128 0.0131879)
(1.86362 1.72112 0.0197847)
(1.96966 1.50135 0.0107904)
(2.13847 1.27224 0.0116376)
(2.23149 1.03308 0.00904773)
(2.31853 0.788824 0.00913061)
(2.3679 0.540979 0.00918501)
(2.39475 0.291938 0.0106625)
(2.39505 0.0434725 0.0132864)
(2.37656 -0.201528 0.0166922)
(2.33748 -0.441241 0.0197693)
(2.27853 -0.673508 0.0226366)
(2.19593 -0.896918 0.0242325)
(2.09884 -1.10971 0.0274613)
(1.96788 -1.31132 0.027435)
(1.84917 -1.49803 0.0336279)
(1.65206 -1.67179 0.0294816)
(1.55132 -1.82475 0.0458714)
(1.22085 -1.96537 0.0321749)
(1.20919 -2.0763 0.0852765)
(0.519332 -2.18179 0.0494734)
(0.665713 -2.24225 0.235394)
(-0.958826 -2.28163 -0.280128)
(0.0380003 -2.30246 0.492425)
(0.736915 2.30838 -0.425438)
(1.87512 2.29631 0.182769)
(0.545618 2.23568 0.0610177)
(1.29404 2.15888 0.160532)
(0.867307 2.02673 0.0375006)
(1.38539 1.8959 0.0516118)
(1.37247 1.72911 0.0179137)
(1.66424 1.5538 0.0245011)
(1.75282 1.35888 0.0150111)
(1.91433 1.15502 0.0162434)
(1.99921 0.941474 0.0132802)
(2.08324 0.722046 0.0133231)
(2.13095 0.498522 0.0130912)
(2.15904 0.273238 0.0143815)
(2.16238 0.0479233 0.0167168)
(2.14819 -0.175018 0.0198741)
(2.11465 -0.393271 0.0228496)
(2.06311 -0.604826 0.0257749)
(1.98896 -0.808708 0.02753)
(1.90302 -1.00231 0.0309669)
(1.78323 -1.1857 0.0307942)
(1.67976 -1.35526 0.0376964)
(1.49456 -1.51282 0.0330309)
(1.41371 -1.65119 0.0503783)
(1.09508 -1.77878 0.0358633)
(1.10803 -1.87828 0.0909737)
(0.423864 -1.97396 0.0518563)
(0.594264 -2.02732 0.241826)
(-1.00045 -2.0604 -0.286652)
(0.0138367 -2.0814 0.497803)
(0.732527 2.06434 -0.421965)
(1.85028 2.05276 0.190125)
(0.5071 2.00097 0.057312)
(1.21362 1.93309 0.165806)
(0.74854 1.81675 0.0423529)
(1.24903 1.703 0.0573898)
(1.20754 1.55581 0.022855)
(1.48874 1.40139 0.0293943)
(1.5604 1.22843 0.0197349)
(1.71502 1.04696 0.0209182)
(1.79141 0.855473 0.0174533)
(1.87162 0.658537 0.0176728)
(1.91718 0.457149 0.0174331)
(1.94589 0.253571 0.0186682)
(1.95141 0.0494586 0.020744)
(1.94115 -0.152868 0.0236697)
(1.91235 -0.351243 0.0263556)
(1.86721 -0.543782 0.0291668)
(1.80105 -0.728952 0.0308474)
(1.72467 -0.905184 0.0344194)
(1.6152 -1.07166 0.0345723)
(1.52467 -1.22533 0.0415325)
(1.35153 -1.36848 0.0368736)
(1.28841 -1.49362 0.0548537)
(0.980876 -1.60938 0.039538)
(1.01581 -1.69876 0.0964267)
(0.336664 -1.78549 0.0542818)
(0.528343 -1.83257 0.247805)
(-1.03784 -1.86135 -0.294015)
(-0.0085759 -1.88193 0.502565)
(0.727995 1.84806 -0.418892)
(1.82825 1.83695 0.196715)
(0.474703 1.79256 0.0543654)
(1.14456 1.73229 0.170888)
(0.646123 1.62913 0.046902)
(1.13024 1.52997 0.0629357)
(1.06271 1.39931 0.0277354)
(1.33375 1.2632 0.0344236)
(1.38956 1.10912 0.0246473)
(1.537 0.947583 0.0260282)
(1.60538 0.776163 0.022132)
(1.68194 0.599119 0.0219834)
(1.72491 0.417535 0.0214078)
(1.75347 0.233679 0.0225343)
(1.76055 0.0490689 0.0245226)
(1.75341 -0.134172 0.0272453)
(1.72883 -0.314094 0.0298526)
(1.68924 -0.488779 0.0326767)
(1.62991 -0.657012 0.0344358)
(1.56197 -0.816944 0.0381305)
(1.4617 -0.968145 0.0381498)
(1.38382 -1.10752 0.0455403)
(1.22115 -1.23754 0.0406837)
(1.17494 -1.35067 0.0593857)
(0.876596 -1.4558 0.0429602)
(0.93195 -1.53608 0.101631)
(0.25678 -1.61494 0.0568164)
(0.467708 -1.65647 0.253493)
(-1.07179 -1.68167 -0.300229)
(-0.029144 -1.70089 0.506964)
(0.723662 1.65599 -0.416113)
(1.80887 1.64529 0.202631)
(0.447095 1.6068 0.0517928)
(1.08506 1.5532 0.175701)
(0.557355 1.46145 0.051219)
(1.02629 1.37459 0.0681782)
(0.935166 1.25846 0.032398)
(1.19684 1.13801 0.0393927)
(1.2376 1.00065 0.0296662)
(1.37813 0.856491 0.0312511)
(1.4385 0.702951 0.0271177)
(1.51127 0.544131 0.0270508)
(1.55132 0.380735 0.0263398)
(1.57955 0.214872 0.0272267)
(1.58784 0.047867 0.0288006)
(1.58273 -0.118074 0.0312407)
(1.56178 -0.281071 0.0335405)
(1.52715 -0.439492 0.0362787)
(1.47398 -0.592118 0.0379734)
(1.41409 -0.737294 0.0419305)
(1.32237 -0.874545 0.0419269)
(1.25575 -1.00093 0.0495309)
(1.10275 -1.1189 0.044555)
(1.07175 -1.22115 0.0636901)
(0.781663 -1.31664 0.0461294)
(0.855677 -1.38884 0.106743)
(0.183844 -1.46078 0.0591798)
(0.411834 -1.49724 0.258834)
(-1.10273 -1.51932 -0.305597)
(-0.0482439 -1.53688 0.510977)
(0.719654 1.48514 -0.413554)
(1.79185 1.4748 0.20794)
(0.423386 1.44097 0.049434)
(1.03369 1.39335 0.180058)
(0.479874 1.31119 0.0554599)
(0.935057 1.23514 0.0732902)
(0.822505 1.1315 0.0367005)
(1.07572 1.02491 0.0442979)
(1.1024 0.902068 0.0345979)
(1.23652 0.773315 0.0364266)
(1.28898 0.635577 0.0320902)
(1.35794 0.492957 0.0320124)
(1.39497 0.345852 0.0311979)
(1.42245 0.196303 0.0319405)
(1.43162 0.045595 0.0333295)
(1.42812 -0.104457 0.0354998)
(1.41046 -0.252086 0.0376417)
(1.38017 -0.395632 0.0402793)
(1.33259 -0.534011 0.0418952)
(1.27991 -0.665509 0.0459007)
(1.19581 -0.789996 0.0458027)
(1.13952 -0.904331 0.053624)
(0.994864 -1.01138 0.0481895)
(0.978182 -1.10376 0.0677082)
(0.695129 -1.19068 0.0490805)
(0.78654 -1.25566 0.111813)
(0.117037 -1.32134 0.0613317)
(0.360493 -1.35317 0.26373)
(-1.13095 -1.37265 -0.310368)
(-0.0663042 -1.38835 0.514613)
(0.716052 1.33292 -0.411179)
(1.77683 1.32284 0.212699)
(0.40293 1.29286 0.0473066)
(0.989332 1.25044 0.184033)
(0.412056 1.17641 0.0593353)
(0.854591 1.10982 0.0783237)
(0.722708 1.01724 0.0409122)
(0.968384 0.922756 0.0490299)
(0.982018 0.812879 0.0392488)
(1.11037 0.697807 0.0414576)
(1.15525 0.574122 0.0369801)
(1.22046 0.445975 0.0369646)
(1.25429 0.313483 0.0360272)
(1.2809 0.178665 0.0366962)
(1.29036 0.0425799 0.0378376)
(1.28849 -0.0930283 0.0397885)
(1.27342 -0.226576 0.0416708)
(1.24708 -0.356476 0.0442412)
(1.20434 -0.48175 0.0457556)
(1.15822 -0.600722 0.0498651)
(1.08079 -0.71343 0.0495691)
(1.03399 -0.816942 0.057578)
(0.896742 -0.914007 0.0515287)
(0.893345 -0.997568 0.0715331)
(0.616501 -1.07678 0.052176)
(0.723991 -1.13531 0.116426)
(0.0556835 -1.19531 0.0633634)
(0.313332 -1.22282 0.268117)
(-1.15672 -1.24014 -0.314498)
(-0.0833785 -1.25392 0.517824)
(0.712838 1.19709 -0.408919)
(1.76357 1.18724 0.217003)
(0.385299 1.16036 0.0453354)
(0.951057 1.12252 0.187641)
(0.352486 1.05538 0.0626764)
(0.783463 0.997122 0.0833253)
(0.633863 0.91426 0.0450361)
(0.873083 0.830584 0.0538207)
(0.874686 0.732187 0.0435701)
(0.997871 0.629307 0.046151)
(1.03565 0.518217 0.0416353)
(1.09736 0.403016 0.0417396)
(1.12802 0.283677 0.0407152)
(1.1535 0.162099 0.0412681)
(1.16301 0.0393205 0.0422372)
(1.16237 -0.0831234 0.0439959)
(1.14952 -0.203735 0.0457129)
(1.12653 -0.321127 0.0481786)
(1.08807 -0.434396 0.0495608)
(1.04777 -0.541969 0.0536563)
(0.976284 -0.644065 0.0530841)
(0.938295 -0.737726 0.0612859)
(0.807521 -0.825932 0.0546867)
(0.816714 -0.90155 0.0754128)
(0.545148 -0.973966 0.0552056)
(0.667501 -1.02647 0.120611)
(-0.000809302 -1.08145 0.0652573)
(0.270055 -1.10503 0.271961)
(-1.18038 -1.12033 -0.317917)
(-0.0994704 -1.13235 0.520619)
(0.710006 1.07565 -0.406708)
(1.75179 1.06604 0.221028)
(0.370151 1.04177 0.0434769)
(0.918133 1.00789 0.190765)
(0.29997 0.946769 0.0654801)
(0.720647 0.895669 0.0878223)
(0.554454 0.821358 0.0491418)
(0.788084 0.747332 0.0585398)
(0.778724 0.659258 0.047921)
(0.897513 0.567361 0.0506441)
(0.928584 0.467572 0.0459418)
(0.987067 0.364095 0.0461984)
(1.01461 0.256628 0.0451161)
(1.03898 0.147104 0.045644)
(1.04824 0.0363581 0.0464436)
(1.04852 -0.0741282 0.0480256)
(1.03743 -0.183074 0.0495396)
(1.0174 -0.289124 0.0518936)
(0.982649 -0.391568 0.0530883)
(0.947706 -0.488841 0.0571822)
(0.881426 -0.581383 0.0563564)
(0.851658 -0.666173 0.0648764)
(0.726687 -0.746481 0.0578654)
(0.74777 -0.814971 0.0793243)
(0.480505 -0.881176 0.057766)
(0.616434 -0.928054 0.124307)
(-0.0530724 -0.978718 0.0672565)
(0.230185 -0.998578 0.275352)
(-1.2022 -1.01203 -0.320965)
(-0.114611 -1.02246 0.523061)
(0.707459 0.966953 -0.404471)
(1.74124 0.957708 0.224973)
(0.357205 0.93551 0.0416175)
(0.889905 0.905142 0.193467)
(0.253579 0.849039 0.0676496)
(0.665134 0.804415 0.0918389)
(0.483452 0.737382 0.0528479)
(0.712091 0.671984 0.0631818)
(0.69253 0.593154 0.052197)
(0.807681 0.511205 0.0552432)
(0.832658 0.421666 0.0502356)
(0.88825 0.32874 0.0504082)
(0.912763 0.232034 0.0491551)
(0.935926 0.1334 0.049639)
(0.944779 0.0335957 0.0503098)
(0.945736 -0.0660584 0.0517366)
(0.936138 -0.16438 0.0530911)
(0.918684 -0.260178 0.0553436)
(0.887196 -0.352834 0.0563997)
(0.857067 -0.440874 0.0606156)
(0.795495 -0.524866 0.0596731)
(0.773546 -0.601755 0.0684704)
(0.653697 -0.674957 0.0610439)
(0.685793 -0.73695 0.0827754)
(0.421741 -0.797303 0.0599497)
(0.570584 -0.838991 0.127665)
(-0.101698 -0.885943 0.0694883)
(0.193457 -0.902272 0.278425)
(-1.22245 -0.914072 -0.323772)
(-0.128714 -0.923051 0.525209)
(0.704869 0.869455 -0.402546)
(1.73181 0.860763 0.229036)
(0.346245 0.840475 0.0397084)
(0.865996 0.813193 0.195784)
(0.212219 0.761501 0.0689641)
(0.616185 0.722539 0.0953412)
(0.420046 0.661767 0.0559465)
(0.644168 0.603759 0.0674763)
(0.614943 0.533172 0.0562898)
(0.726998 0.460164 0.0596815)
(0.74631 0.379946 0.0545824)
(0.799506 0.296671 0.0548416)
(0.821233 0.209714 0.0533934)
(0.843288 0.120952 0.0537139)
(0.851593 0.0310043 0.0541742)
(0.853042 -0.0588627 0.0554639)
(0.844632 -0.147646 0.0567226)
(0.829465 -0.234216 0.0589933)
(0.8009 -0.31812 0.0600169)
(0.775357 -0.397871 0.0642873)
(0.717993 -0.474205 0.0631429)
(0.703434 -0.543934 0.072173)
(0.587748 -0.610651 0.0641627)
(0.630064 -0.66646 0.0858748)
(0.367988 -0.721321 0.0621132)
(0.529369 -0.758021 0.130653)
(-0.146848 -0.799313 0.0713958)
(0.159882 -0.814742 0.281181)
(-1.24122 -0.825406 -0.326313)
(-0.141852 -0.83311 0.527339)
(0.702218 0.781834 -0.400879)
(1.72355 0.773676 0.232878)
(0.336648 0.755581 0.0378894)
(0.845753 0.731425 0.197859)
(0.175354 0.684271 0.069592)
(0.573337 0.64944 0.0983148)
(0.363419 0.593944 0.0591766)
(0.583655 0.542165 0.0712582)
(0.545047 0.478667 0.0605812)
(0.654395 0.413607 0.064299)
(0.668369 0.341703 0.0590538)
(0.719474 0.267141 0.0594135)
(0.738636 0.189074 0.0579115)
(0.759704 0.109275 0.0581844)
(0.767501 0.0282702 0.0585188)
(0.769392 -0.052772 0.0596921)
(0.762073 -0.132967 0.0608121)
(0.74902 -0.211271 0.0630057)
(0.723122 -0.287312 0.0638659)
(0.70181 -0.359624 0.0681831)
(0.64818 -0.429021 0.0668632)
(0.640348 -0.49218 0.0758541)
(0.528136 -0.552806 0.0669494)
(0.579432 -0.602748 0.0887951)
(0.318229 -0.652426 0.0642066)
(0.488916 -0.684341 0.133151)
(-0.184474 -0.7198 0.0677156)
(0.129881 -0.735366 0.283377)
(-1.25853 -0.745166 -0.328596)
(-0.154015 -0.751815 0.529459)
(0.699647 0.703181 -0.399344)
(1.7164 0.695692 0.235587)
(0.327171 0.679732 0.0362665)
(0.826709 0.659339 0.200554)
(0.144359 0.618872 0.0731989)
(0.536766 0.584745 0.101497)
(0.313105 0.533055 0.0618057)
(0.52999 0.486748 0.0747878)
(0.482294 0.429181 0.0641663)
(0.589211 0.371096 0.068716)
(0.598016 0.306561 0.0634767)
(0.647298 0.239785 0.0639287)
(0.66401 0.16966 0.0622815)
(0.684239 0.0979568 0.0624963)
(0.691572 0.0250266 0.0627198)
(0.693909 -0.0480394 0.0637785)
(0.687602 -0.120481 0.0647486)
(0.67654 -0.191291 0.0669017)
(0.653021 -0.260188 0.0676433)
(0.635635 -0.325652 0.0719607)
(0.585154 -0.388646 0.0701404)
(0.583648 -0.445599 0.078978)
(0.473726 -0.500539 0.0691142)
(0.533573 -0.545064 0.0915627)
(0.272167 -0.589964 0.0657458)
(0.452829 -0.617649 0.135593)
(-0.219582 -0.64877 0.0631736)
(0.103071 -0.662688 0.285544)
(-1.27446 -0.67278 -0.330639)
(-0.165135 -0.678407 0.531461)
(0.697212 0.632657 -0.397978)
(1.70991 0.626011 0.237416)
(0.317308 0.611643 0.034591)
(0.806995 0.594701 0.20313)
(0.119719 0.56119 0.0749348)
(0.505908 0.526601 0.104357)
(0.268534 0.478428 0.0639817)
(0.482486 0.436828 0.0776474)
(0.426089 0.38464 0.0672388)
(0.530915 0.332508 0.0724694)
(0.53468 0.274375 0.0674107)
(0.582297 0.214499 0.0682184)
(0.596721 0.15148 0.0665392)
(0.616175 0.0870036 0.0667522)
(0.623054 0.021335 0.0668594)
(0.625838 -0.044521 0.0678202)
(0.620463 -0.109899 0.0686636)
(0.611216 -0.173861 0.0707136)
(0.589824 -0.236187 0.0712127)
(0.576059 -0.295347 0.075315)
(0.528222 -0.352303 0.0728924)
(0.532322 -0.40352 0.0816175)
(0.424129 -0.453202 0.0711339)
(0.491772 -0.492812 0.0938921)
(0.229255 -0.533343 0.0670815)
(0.419048 -0.556697 0.137895)
(-0.251152 -0.5826 0.059331)
(0.0783055 -0.596968 0.286793)
(-1.28812 -0.607055 -0.332364)
(-0.175135 -0.612075 0.533339)
(0.694895 0.569316 -0.396741)
(1.70387 0.563466 0.239194)
(0.307792 0.550374 0.0326973)
(0.788211 0.535513 0.205207)
(0.0988988 0.504885 0.073358)
(0.479603 0.473513 0.106713)
(0.228904 0.429087 0.0657026)
(0.440407 0.391962 0.0800149)
(0.375728 0.344562 0.0697355)
(0.478886 0.29782 0.0756838)
(0.477864 0.245314 0.0707388)
(0.523965 0.191443 0.0718855)
(0.536084 0.134667 0.0703199)
(0.554831 0.0766632 0.0706639)
(0.561275 0.0175205 0.0707354)
(0.564479 -0.0418285 0.0716036)
(0.559953 -0.100812 0.0722397)
(0.552387 -0.158522 0.0740738)
(0.532826 -0.214769 0.0741769)
(0.522261 -0.268031 0.0781136)
(0.476537 -0.319457 0.0752627)
(0.485904 -0.365401 0.0840281)
(0.378788 -0.410377 0.0727257)
(0.453788 -0.445632 0.0958952)
(0.188979 -0.482395 0.0683056)
(0.386497 -0.502024 0.14038)
(-0.278837 -0.523526 0.0581187)
(0.0568292 -0.538051 0.288094)
(-1.30056 -0.547838 -0.333957)
(-0.184138 -0.552143 0.535081)
(0.693 0.512415 -0.395958)
(1.69842 0.507348 0.240909)
(0.299016 0.495451 0.030643)
(0.772347 0.481952 0.207029)
(0.0801147 0.453597 0.0718636)
(0.456958 0.425472 0.108692)
(0.193496 0.38463 0.0671087)
(0.403141 0.351554 0.081901)
(0.330494 0.308545 0.0718218)
(0.432404 0.266674 0.0784186)
(0.426886 0.219233 0.0735105)
(0.471728 0.170723 0.0749674)
(0.481668 0.119495 0.0734636)
(0.499733 0.0672206 0.0738733)
(0.505685 0.0139184 0.0738897)
(0.50919 -0.0395497 0.0746739)
(0.505349 -0.0926871 0.0751683)
(0.499237 -0.144649 0.0768833)
(0.481223 -0.195333 0.0767718)
(0.473579 -0.243227 0.0806543)
(0.429564 -0.289626 0.077351)
(0.443919 -0.330869 0.0859992)
(0.337448 -0.371653 0.0739535)
(0.419414 -0.403063 0.0975395)
(0.151502 -0.436529 0.0693215)
(0.355934 -0.453263 0.142532)
(-0.30355 -0.472031 0.0584912)
(0.0375889 -0.485242 0.289309)
(-1.31199 -0.494552 -0.335397)
(-0.192342 -0.498039 0.536692)
(0.691648 0.461269 -0.395486)
(1.69353 0.456883 0.242582)
(0.290874 0.446127 0.0287365)
(0.75897 0.433727 0.208701)
(0.0633286 0.407542 0.0705801)
(0.437508 0.382182 0.110448)
(0.16182 0.34453 0.0681687)
(0.370101 0.315207 0.0834014)
(0.289909 0.276182 0.0734626)
(0.390838 0.238717 0.0807465)
(0.381043 0.195887 0.0759071)
(0.424851 0.152269 0.0776433)
(0.432754 0.106071 0.0761521)
(0.450206 0.0589538 0.0766386)
(0.455636 0.0108931 0.0766184)
(0.459358 -0.0372768 0.0773643)
(0.456042 -0.0851464 0.077749)
(0.451193 -0.131918 0.0793831)
(0.434465 -0.177581 0.0790224)
(0.429528 -0.220684 0.0827768)
(0.386945 -0.262615 0.079005)
(0.40605 -0.299644 0.0875652)
(0.299852 -0.336676 0.074825)
(0.388455 -0.364652 0.0989349)
(0.116758 -0.395239 0.0701659)
(0.328104 -0.409387 0.14432)
(-0.326476 -0.426162 0.0581238)
(0.0201542 -0.43775 0.29033)
(-1.32254 -0.446544 -0.336667)
(-0.199836 -0.449214 0.538157)
(0.690427 0.41528 -0.39512)
(1.68911 0.411515 0.244189)
(0.283512 0.402033 0.0270946)
(0.747087 0.390054 0.210191)
(0.0487671 0.366126 0.069383)
(0.421023 0.343214 0.111975)
(0.133336 0.308371 0.0688647)
(0.340833 0.282515 0.0845323)
(0.25334 0.247029 0.0747384)
(0.35377 0.213623 0.0826607)
(0.339808 0.174909 0.0778439)
(0.382802 0.135726 0.0799006)
(0.3887 0.0940547 0.0784364)
(0.405603 0.0516385 0.0790094)
(0.410489 0.00833921 0.078954)
(0.414378 -0.0350415 0.0796521)