/*--------------------------------*- C++ -*----------------------------------*\
  =========                 |
  \\      /  F ield         | OpenFOAM: The Open Source CFD Toolbox
   \\    /   O peration     | Website:  https://openfoam.org
    \\  /    A nd           | Version:  10
     \\/     M anipulation  |
\*---------------------------------------------------------------------------*/
FoamFile
{
    format      ascii;
    class       volScalarField;
    location    "0.05";
    object      k;
}
// * * * * * * * * * * * * * * * * * * * * * * * * * * * * * * * * * * * * * //

dimensions      [0 2 -2 0 0 0 0];

internalField   nonuniform List<scalar> 
114940
(
0.100837
0.0978121
0.100926
0.0979265
0.0986541
0.0976267
0.0978615
0.0976079
0.0975517
0.0978019
0.0975428
0.0974067
0.0973906
0.0977383
0.0977926
0.097711
0.097362
0.0973405
0.0973716
0.0973774
0.0977897
0.097648
0.0977489
0.0973536
0.0973803
0.0973805
0.0977705
0.0977124
0.0976887
0.0975224
0.0975142
0.0975268
0.097753
0.0978242
0.0973483
0.0995662
0.0997353
0.0995405
0.0980265
0.0973893
0.0989545
0.0985127
0.102347
0.0984864
0.0977252
0.0996796
0.0977077
0.103143
0.103788
0.0987269
0.0990435
0.0975493
0.0975442
0.098459
0.103689
0.103488
0.102063
0.101294
0.0984072
0.0974477
0.0975354
0.0981045
0.102644
0.103185
0.102292
0.100853
0.0980791
0.0976798
0.0975557
0.106214
0.103381
0.0988896
0.10327
0.100922
0.0993712
0.102699
0.102545
0.098727
0.0980346
0.0976873
0.0977934
0.0976042
0.098058
0.0977429
0.0979902
0.0975515
0.0976132
0.0976824
0.0975699
0.0975011
0.0977932
0.0976897
0.0978096
0.0978191
0.0976818
0.0981145
0.0977575
0.0974184
0.101334
0.0999965
0.100567
0.0985297
0.0978483
0.103263
0.103244
0.0986275
0.103829
0.103356
0.0988188
0.102475
0.103448
0.0992015
0.105788
0.10546
0.103334
0.0995567
0.0993507
0.0986781
0.100704
0.101788
0.105547
0.102862
0.101919
0.10057
0.098249
0.097698
0.0976387
0.0978689
0.105952
0.107289
0.0999823
0.100406
0.101185
0.101458
0.0984571
0.0977451
0.0978164
0.0987664
0.102477
0.10259
0.100623
0.101
0.101373
0.100783
0.100675
0.100691
0.0992965
0.103459
0.102589
0.101952
0.101244
0.098742
0.0987425
0.0998789
0.0981205
0.0999246
0.101698
0.0983939
0.102301
0.10166
0.0990943
0.0987014
0.103684
0.103203
0.0990119
0.103077
0.101057
0.102784
0.102881
0.0989483
0.0977044
0.0976765
0.0984308
0.0978643
0.0976079
0.0982263
0.0996521
0.103969
0.102596
0.0986539
0.0631797
0.0963819
0.103342
0.106684
0.105767
0.102157
0.0991272
0.101912
0.0986628
0.102796
0.103536
0.108064
0.105204
0.102132
0.1028
0.0993937
0.105283
0.103946
0.107866
0.103694
0.105282
0.107911
0.100745
0.0989743
0.103768
0.100907
0.105588
0.104951
0.108369
0.105039
0.109
0.102127
0.101926
0.103126
0.102887
0.100314
0.106693
0.108018
0.104803
0.103536
0.102974
0.102468
0.0998336
0.103253
0.103955
0.104626
0.102241
0.104136
0.111709
0.102246
0.113408
0.100556
0.102085
0.100225
0.105817
0.104528
0.106462
0.103821
0.109555
0.101456
0.101378
0.10156
0.107946
0.116694
0.101166
0.112809
0.102883
0.101123
0.0999813
0.099582
0.103352
0.104481
0.0977039
0.0973912
0.0973867
0.0976739
0.0981192
0.0979068
0.0976362
0.0963617
0.098536
0.105984
0.102595
0.0986579
0.0956142
0.104494
0.100696
0.107402
0.102158
0.0959465
0.108276
0.100781
0.105644
0.102083
0.102376
0.103118
0.0644264
0.10185
0.108609
0.10047
0.108989
0.100421
0.0993706
0.103511
0.101665
0.091919
0.0751663
0.0996132
0.109657
0.105256
0.102228
0.10214
0.101803
0.102033
0.103574
0.0637171
0.0609713
0.0988878
0.115044
0.103329
0.101749
0.099854
0.102016
0.103465
0.103758
0.0959545
0.0585995
0.103654
0.105746
0.113979
0.100363
0.103228
0.10068
0.106298
0.0967999
0.0614176
0.127743
0.120779
0.101484
0.105216
0.101971
0.104743
0.105616
0.106624
0.125689
0.102815
0.103986
0.0998526
0.0985629
0.106721
0.104113
0.0976961
0.0973842
0.0973814
0.0976634
0.0979204
0.0975436
0.0973801
0.0916722
0.10043
0.100438
0.0985381
0.0978306
0.105174
0.100995
0.104653
0.103412
0.0988812
0.0875927
0.100093
0.10176
0.107457
0.100436
0.106589
0.103254
0.0980832
0.105848
0.104621
0.100164
0.102776
0.109935
0.100098
0.104358
0.102969
0.0995272
0.100413
0.100104
0.10587
0.101679
0.104351
0.110428
0.10028
0.107158
0.101788
0.0997933
0.10305
0.104116
0.102767
0.102544
0.103188
0.109408
0.101134
0.103103
0.100638
0.101441
0.104547
0.101218
0.106991
0.10104
0.102881
0.105696
0.106769
0.103948
0.0981222
0.100794
0.106087
0.106634
0.101279
0.106118
0.107575
0.126494
0.098131
0.102052
0.106262
0.100419
0.10272
0.115185
0.10488
0.103405
0.10486
0.105759
0.103382
0.0977699
0.0976805
0.0976309
0.0983267
0.103198
0.101037
0.10662
0.0985953
0.115654
0.101189
0.104043
0.101794
0.119122
0.101155
0.0985651
0.0988265
0.102823
0.103734
0.098719
0.0975243
0.0987539
0.0984718
0.0993672
0.0991533
0.0980592
0.0988412
0.103751
0.103552
0.0980697
0.097831
0.0989012
0.101225
0.1014
0.0985758
0.0981552
0.0989033
0.101617
0.103063
0.0997048
0.101808
0.103264
0.0991083
0.0984497
0.098161
0.0988113
0.106015
0.101807
0.0981966
0.103308
0.102633
0.10097
0.0983914
0.0985112
0.106938
0.104864
0.0995395
0.0982659
0.0983108
0.102622
0.104733
0.0996885
0.0988778
0.109699
0.105057
0.103347
0.104438
0.106119
0.104293
0.0981078
0.0980338
0.0982407
0.105656
0.101004
0.0984817
0.106571
0.101728
0.0981596
0.0976261
0.0993798
0.102937
0.102649
0.0984757
0.0975587
0.0978243
0.0976447
0.0975296
0.0975973
0.0978165
0.0974673
0.0974013
0.0973909
0.0977229
0.0977044
0.0974479
0.0974657
0.0974726
0.0973435
0.0973855
0.0973909
0.0978333
0.0978662
0.0978491
0.0977341
0.0973645
0.0973849
0.0973848
0.0975439
0.0979424
0.0983059
0.0975829
0.0976234
0.0973877
0.0975271
0.0976548
0.0980591
0.0976326
0.0974535
0.0976222
0.0983701
0.0978536
0.0977152
0.0973399
0.097583
0.0973477
0.097665
0.0976196
0.0974244
0.0975204
0.0976521
0.0974764
0.103024
0.103247
0.102352
0.101898
0.0996088
0.105678
0.100215
0.104762
0.0769284
0.101966
0.0991241
0.0968322
0.10701
0.102399
0.107927
0.098643
0.0978422
0.0994231
0.0998655
0.102064
0.104717
0.10259
0.101492
0.100177
0.1018
0.100766
0.112969
0.0959931
0.0983744
0.0970363
0.0898029
0.112945
0.0972849
0.100189
0.0982181
0.09977
0.0962389
0.0982422
0.0983155
0.099196
0.0534142
0.100245
0.0911732
0.101138
0.0977144
0.0938245
0.100597
0.0974724
0.100412
0.0959662
0.102378
0.0929192
0.10013
0.102142
0.101312
0.0530995
0.104324
0.101714
0.0967428
0.106369
0.0992546
0.101833
0.0587211
0.091805
0.102377
0.101453
0.0907665
0.0996785
0.102682
0.100673
0.0948953
0.0992675
0.0913226
0.102615
0.10298
0.106941
0.103087
0.0597998
0.102795
0.101979
0.103016
0.10157
0.103089
0.0596603
0.100345
0.0838509
0.101387
0.105344
0.103431
0.0945238
0.082808
0.0675173
0.0946502
0.105837
0.102993
0.0673587
0.0971316
0.0537911
0.0995363
0.109116
0.101036
0.0622696
0.0966291
0.0920512
0.0638764
0.112613
0.0865663
0.0961188
0.0980932
0.0956237
0.0980982
0.112692
0.0976555
0.0858772
0.0967532
0.0980967
0.0977866
0.0987581
0.0951145
0.0985129
0.0971963
0.0994187
0.0564372
0.0905498
0.0943153
0.0930558
0.0949612
0.0959942
0.103829
0.101059
0.0632034
0.0919455
0.111408
0.100174
0.100764
0.0627699
0.0943873
0.101027
0.10275
0.101395
0.0920728
0.0799798
0.102522
0.100218
0.105399
0.102582
0.0903324
0.0868495
0.0746606
0.106377
0.099562
0.102053
0.0935449
0.0965821
0.0724443
0.0548794
0.10172
0.100008
0.106371
0.0970626
0.0955081
0.0948233
0.0586897
0.102425
0.0996957
0.101279
0.0998394
0.082637
0.0975676
0.100701
0.0823334
0.0912105
0.0995319
0.101964
0.101033
0.0774748
0.0986103
0.101239
0.102847
0.101308
0.0992378
0.0980943
0.0982096
0.101917
0.102173
0.102051
0.103508
0.0980854
0.0979502
0.0977954
0.102092
0.102056
0.101925
0.10278
0.0979387
0.0978174
0.0978493
0.102256
0.103253
0.101963
0.102753
0.0794025
0.0846841
0.0857313
0.0922667
0.101175
0.0921326
0.0987242
0.0976741
0.0885348
0.0962565
0.101032
0.0986736
0.0690719
0.0785416
0.0947155
0.104934
0.066929
0.0974749
0.0854893
0.0755679
0.102835
0.1065
0.0978624
0.102172
0.103173
0.069037
0.0977942
0.105211
0.102268
0.109053
0.10416
0.0934619
0.100609
0.0990156
0.104133
0.100091
0.104855
0.0890442
0.0662513
0.103735
0.0728212
0.101172
0.107473
0.100208
0.0989768
0.100288
0.0571211
0.0945683
0.103126
0.102799
0.099704
0.0543071
0.0998867
0.0904197
0.101764
0.101013
0.101074
0.0989912
0.100618
0.0638795
0.106317
0.104175
0.102179
0.105979
0.0953865
0.0608487
0.100588
0.0957023
0.0997657
0.100549
0.0959218
0.101106
0.0998036
0.100807
0.104722
0.102717
0.0918886
0.09826
0.0991393
0.0988797
0.0989986
0.0937993
0.0649726
0.103423
0.0962146
0.109859
0.0997183
0.0851128
0.0649602
0.0944617
0.0994508
0.0746433
0.0653892
0.0897065
0.0876759
0.0880081
0.100056
0.101858
0.109048
0.0974887
0.107344
0.10001
0.0661792
0.103267
0.101934
0.101182
0.103817
0.105367
0.105659
0.101206
0.0887412
0.10526
0.104185
0.102409
0.102719
0.0948477
0.0824817
0.0716042
0.102776
0.0609602
0.0897283
0.0953724
0.101386
0.0786283
0.0968726
0.117874
0.0984022
0.102772
0.0996757
0.0742535
0.101018
0.0649533
0.0995484
0.101785
0.100497
0.102566
0.0914542
0.0873651
0.0723189
0.0967753
0.0940631
0.102648
0.100683
0.0565803
0.096025
0.11693
0.0984494
0.103559
0.0997026
0.0584483
0.101932
0.0920929
0.102841
0.0955216
0.10127
0.103455
0.100342
0.0796425
0.0752831
0.0916414
0.0559546
0.0965616
0.102446
0.101376
0.0582088
0.105618
0.114695
0.0987274
0.101544
0.100205
0.0600075
0.10005
0.0916157
0.100691
0.0997176
0.104599
0.102636
0.0921262
0.0992452
0.110606
0.0991249
0.100359
0.0877894
0.0922772
0.101467
0.0860929
0.0943338
0.101317
0.101566
0.105166
0.102632
0.100814
0.104151
0.100454
0.104297
0.101333
0.104858
0.102212
0.103596
0.108217
0.0998106
0.102403
0.101814
0.0977487
0.0979398
0.0978036
0.097855
0.101039
0.10184
0.101839
0.0976528
0.097959
0.0979035
0.0978873
0.102001
0.0938039
0.0882689
0.0947373
0.0876132
0.0938322
0.0786575
0.0855805
0.0974974
0.100847
0.0961629
0.0884376
0.094088
0.0945009
0.0945887
0.0856294
0.0984732
0.079455
0.0757893
0.0939522
0.0875515
0.0947144
0.0822933
0.0980381
0.0562685
0.0944532
0.0999025
0.0932651
0.0936229
0.0988749
0.0971504
0.0360373
0.0863525
0.0856824
0.100494
0.0860776
0.0849095
0.100806
0.096141
0.0899839
0.0686658
0.0871988
0.0870963
0.0576225
0.088215
0.0620895
0.0881954
0.0998002
0.0927367
0.0980215
0.0955073
0.0973399
0.0963812
0.0615949
0.0929979
0.0537097
0.0567502
0.062261
0.0481707
0.0591758
0.0935532
0.0553559
0.0716552
0.0606192
0.0689109
0.0924705
0.0902367
0.0967866
0.0749216
0.102265
0.099833
0.0998303
0.0919645
0.090572
0.0763508
0.0822988
0.0992343
0.0822515
0.0917285
0.0981674
0.094696
0.0999058
0.0965477
0.0975752
0.0694679
0.10103
0.0929112
0.0836303
0.0857542
0.102624
0.0931439
0.0886992
0.0971999
0.0918629
0.0623468
0.0894831
0.0932989
0.056721
0.100916
0.0976079
0.0673602
0.0983728
0.0723627
0.0996616
0.0989487
0.062705
0.0987529
0.0818155
0.0697583
0.0635236
0.0636608
0.0906351
0.0724832
0.0799884
0.0708384
0.0813493
0.0651026
0.0615051
0.0719884
0.0737074
0.0929364
0.0587738
0.0812806
0.0784193
0.0819522
0.0800116
0.0940955
0.0950767
0.0701043
0.0941686
0.094252
0.0957816
0.0946321
0.0955403
0.0837157
0.0990241
0.101946
0.0619797
0.0991163
0.0661039
0.0722516
0.0816018
0.0653921
0.0985303
0.0997544
0.0752106
0.0794336
0.0645939
0.0670695
0.0814698
0.0839092
0.0941306
0.0690996
0.0938938
0.0757054
0.0765879
0.105429
0.0977866
0.0910818
0.0980632
0.0705015
0.0793614
0.0751913
0.100592
0.0984257
0.0916891
0.0981548
0.0910851
0.0858726
0.0661488
0.0594636
0.0765949
0.0812034
0.066591
0.0670028
0.0938285
0.079907
0.0889305
0.085245
0.0895741
0.0675477
0.0850028
0.0664233
0.0708183
0.0669386
0.0817342
0.0825536
0.082506
0.0711967
0.0621648
0.105585
0.0976402
0.0816147
0.0966283
0.0862781
0.0698822
0.0616429
0.10373
0.0984286
0.0745529
0.0983248
0.0783063
0.0679116
0.0766115
0.0840784
0.0863009
0.0670349
0.0879406
0.0689747
0.0737012
0.0972132
0.0889664
0.0693541
0.0913138
0.0720742
0.0705333
0.0695492
0.0641919
0.0683685
0.0673059
0.0660894
0.0681763
0.06994
0.0948084
0.0648945
0.0894057
0.080794
0.0961745
0.0943759
0.0639163
0.094365
0.100801
0.0826084
0.0781058
0.101052
0.096748
0.0638415
0.0961266
0.100603
0.0765139
0.075653
0.101447
0.0975011
0.0640911
0.100472
0.104598
0.0812521
0.0876321
0.0808282
0.104635
0.0877998
0.0803949
0.102122
0.0985544
0.100878
0.100884
0.101611
0.107823
0.101705
0.0984494
0.107808
0.101166
0.100394
0.0969589
0.098852
0.107649
0.101218
0.09972
0.0997818
0.104637
0.082381
0.100398
0.0939504
0.0831927
0.105187
0.0824756
0.0822192
0.0594806
0.093299
0.078089
0.0691328
0.0829468
0.055054
0.0726922
0.0770154
0.0656863
0.055008
0.0981343
0.0974414
0.0499276
0.0877363
0.0605051
0.0514214
0.084841
0.0981645
0.0936546
0.0643849
0.0874516
0.0594571
0.0987083
0.0677937
0.0902039
0.0988613
0.0891422
0.0425393
0.0596425
0.0926079
0.0837832
0.0903355
0.0940305
0.0702802
0.0833422
0.0643956
0.0976919
0.0961358
0.101075
0.0841817
0.106257
0.0893821
0.0973254
0.100372
0.111501
0.0849096
0.0997979
0.0907975
0.103082
0.0997313
0.0853098
0.0989347
0.0829149
0.0999633
0.0902225
0.101281
0.0954466
0.0915891
0.0782397
0.103858
0.0922879
0.0860752
0.0770349
0.0739075
0.0897874
0.0907204
0.0921397
0.0974579
0.0720791
0.0737618
0.0953757
0.0614681
0.0963681
0.0913353
0.09729
0.081795
0.075339
0.0916066
0.061587
0.0972023
0.0965101
0.0905991
0.0971586
0.10308
0.0933495
0.0972379
0.0919564
0.098422
0.0889887
0.070875
0.0942359
0.102464
0.0696798
0.0903514
0.0716493
0.0819899
0.0903731
0.0705537
0.093384
0.0942587
0.106276
0.0985061
0.100302
0.0834409
0.0975079
0.101235
0.0734373
0.0684441
0.0984041
0.0555435
0.101913
0.102177
0.101625
0.0664051
0.0691787
0.0978976
0.0559427
0.0935143
0.101877
0.0894327
0.0843692
0.0891375
0.0946877
0.0951405
0.0886498
0.100841
0.0844678
0.0898744
0.084426
0.0923104
0.0974566
0.103672
0.0997462
0.100445
0.101653
0.0695642
0.100165
0.0914807
0.0946657
0.10322
0.0610194
0.101822
0.0913898
0.0960064
0.100518
0.0835878
0.103868
0.0962067
0.100438
0.0675656
0.0845415
0.0966857
0.0976662
0.0974439
0.10122
0.101939
0.10091
0.101007
0.0999787
0.0994202
0.100887
0.107481
0.104138
0.101382
0.10865
0.102722
0.105362
0.0991664
0.099384
0.0983463
0.105906
0.0994305
0.101513
0.0991427
0.10177
0.0978797
0.0987352
0.110374
0.106462
0.103045
0.106104
0.0978307
0.0978566
0.0978477
0.102184
0.10251
0.102351
0.103572
0.0987152
0.0977236
0.0980699
0.11001
0.101672
0.103121
0.101755
0.0979163
0.09836
0.0984416
0.102199
0.103086
0.104527
0.104852
0.0982505
0.100437
0.101952
0.103302
0.100785
0.109519
0.104629
0.0671778
0.0763197
0.0809521
0.0810769
0.103953
0.101833
0.0992725
0.101665
0.104892
0.101151
0.0997986
0.100511
0.094321
0.102687
0.099152
0.099058
0.0969577
0.103325
0.084118
0.097458
0.105469
0.0724458
0.0974396
0.0694036
0.0991717
0.105345
0.106502
0.100937
0.106411
0.105196
0.102389
0.100473
0.0981962
0.0941197
0.0797132
0.081634
0.103108
0.0983226
0.0956041
0.0643934
0.0948991
0.105302
0.0944387
0.0968744
0.0975681
0.100885
0.106718
0.102466
0.108465
0.102729
0.0668334
0.100879
0.103902
0.0977879
0.0824921
0.070105
0.0886208
0.106823
0.0973504
0.0979893
0.0913041
0.0947702
0.108448
0.0774822
0.0993368
0.0942428
0.101638
0.10334
0.100488
0.103228
0.102174
0.0985572
0.103504
0.109841
0.106011
0.102328
0.103969
0.0599444
0.0930394
0.0995821
0.0615409
0.0855081
0.0570923
0.0862395
0.0844313
0.0728795
0.0862044
0.0689191
0.0907253
0.0772742
0.0905056
0.0785682
0.0988879
0.0890165
0.0973592
0.104138
0.098299
0.0987515
0.104778
0.101885
0.0989814
0.0999452
0.0976079
0.10163
0.0822755
0.0858237
0.093681
0.0978028
0.0661993
0.0596205
0.0662613
0.0809617
0.0907506
0.0932378
0.100761
0.101034
0.101038
0.104113
0.102009
0.113983
0.0772709
0.0954178
0.0906428
0.086087
0.0949596
0.085516
0.0965675
0.057592
0.0837175
0.0836102
0.0557969
0.0719618
0.0777426
0.0684313
0.100635
0.104841
0.100482
0.106684
0.10194
0.105554
0.0930466
0.0786325
0.0981577
0.0932316
0.0919821
0.0996576
0.0913868
0.0692648
0.0575453
0.0809854
0.0870752
0.087191
0.0526313
0.097349
0.104911
0.107741
0.102773
0.101649
0.104644
0.10757
0.0707291
0.0963331
0.102725
0.102993
0.101715
0.0900949
0.10248
0.0921286
0.0954533
0.0605541
0.100707
0.0993842
0.100729
0.0982085
0.0947903
0.10068
0.10083
0.102165
0.1033
0.100914
0.101126
0.102131
0.0719537
0.0677914
0.103916
0.084483
0.0943421
0.100024
0.0956788
0.102692
0.103488
0.0993247
0.103009
0.101831
0.105155
0.102298
0.0842582
0.104637
0.101215
0.0989576
0.0954609
0.100046
0.104285
0.100697
0.101229
0.100036
0.101858
0.101525
0.105748
0.104901
0.100403
0.100169
0.101565
0.101528
0.0994922
0.0991873
0.0981088
0.102254
0.101525
0.101993
0.0987898
0.0979957
0.0983612
0.0984692
0.101869
0.101949
0.106826
0.0978736
0.0979845
0.0982423
0.0980142
0.102308
0.104346
0.104598
0.0977993
0.0981178
0.0983409
0.0983194
0.101641
0.101597
0.101564
0.0976741
0.0980738
0.0979676
0.0980209
0.0993719
0.104524
0.0990204
0.098988
0.0984786
0.0983411
0.0982689
0.102387
0.105933
0.0993928
0.0982983
0.0978271
0.0980435
0.0804409
0.0930492
0.0826613
0.100428
0.0954777
0.0985084
0.100708
0.101892
0.09405
0.101485
0.0924341
0.102591
0.0950325
0.0618089
0.105549
0.1099
0.0582824
0.0846333
0.0598378
0.0582379
0.0982794
0.10035
0.0989887
0.0726208
0.0624361
0.105488
0.0583139
0.10817
0.0598347
0.0846954
0.057067
0.062355
0.0984498
0.0951024
0.0842439
0.0970599
0.0869987
0.0615021
0.0987088
0.0982506
0.100224
0.0953989
0.0990421
0.0976869
0.0992851
0.0984785
0.0971433
0.0977162
0.0969447
0.0972087
0.0977024
0.0990331
0.0766868
0.058732
0.0697701
0.0838703
0.0459457
0.0807007
0.0947219
0.092842
0.0947231
0.0956205
0.0985166
0.0661123
0.065387
0.0929459
0.096076
0.0947275
0.0914223
0.0649976
0.0745382
0.095524
0.0954161
0.0900049
0.0651961
0.0900777
0.0642905
0.0949257
0.0784426
0.0624603
0.094452
0.0933051
0.101159
0.0786912
0.101157
0.0763924
0.0944651
0.0986506
0.0954697
0.0991345
0.0982917
0.0964644
0.0834288
0.0878846
0.0887011
0.0653691
0.0905933
0.0865578
0.0857666
0.0920342
0.087528
0.0842855
0.0756703
0.0875638
0.0654909
0.0908527
0.0658994
0.101185
0.0939873
0.102144
0.0968358
0.0979245
0.0911461
0.0642987
0.0633136
0.0599599
0.0813555
0.0769639
0.0989221
0.0998719
0.0950599
0.0987195
0.0744114
0.0842556
0.0506802
0.0502594
0.0941725
0.104904
0.0934971
0.0664816
0.0920369
0.0870021
0.0888778
0.0846661
0.0532666
0.0571446
0.0728348
0.061391
0.0637274
0.088154
0.102098
0.0979653
0.0839988
0.0994598
0.0670497
0.0913917
0.0630463
0.0599613
0.0792435
0.06298
0.0798578
0.0820615
0.101
0.0959048
0.0938891
0.0973309
0.0953557
0.0825875
0.0752017
0.0744875
0.081959
0.0881034
0.0801342
0.0792625
0.100483
0.0947091
0.0919585
0.0981346
0.090345
0.0988563
0.0556424
0.0580588
0.0680229
0.0893767
0.0710813
0.0628767
0.0696819
0.0633379
0.098125
0.103946
0.0991704
0.0987065
0.100777
0.0851326
0.0408779
0.0728755
0.0810279
0.0640276
0.0723488
0.0521834
0.0563968
0.039054
0.0859992
0.0646505
0.0854828
0.0686929
0.0879409
0.0849382
0.0634535
0.0955455
0.0929167
0.0887263
0.0832393
0.0952401
0.101608
0.0641254
0.0870666
0.0934316
0.0651752
0.0634706
0.0907613
0.0870923
0.0652461
0.0594033
0.112604
0.0576452
0.113088
0.0575638
0.0875982
0.0580197
0.062209
0.0821784
0.0881122
0.049315
0.0811994
0.0633845
0.0495097
0.0593688
0.0578013
0.111399
0.112197
0.0878562
0.0567668
0.0580972
0.0533987
0.0950097
0.0860346
0.097557
0.060492
0.0969547
0.0728095
0.0605185
0.0827198
0.0505445
0.0840038
0.06347
0.084655
0.0568681
0.0987893
0.0972333
0.0974965
0.0966312
0.0992052
0.0999627
0.0986886
0.0981521
0.100556
0.0982471
0.094288
0.0993536
0.10162
0.0983563
0.0979367
0.0969706
0.0903196
0.100344
0.0983256
0.0981111
0.0993466
0.0783948
0.0831695
0.0624643
0.0567694
0.0613016
0.078463
0.0821428
0.0675438
0.0569157
0.0856792
0.0765202
0.095627
0.0964914
0.0901448
0.0977218
0.0595589
0.0632169
0.0838845
0.0834039
0.0859805
0.0825005
0.0490153
0.0853515
0.0935091
0.0983441
0.100741
0.0888827
0.0900076
0.0881811
0.0999571
0.0982756
0.107488
0.0905552
0.101907
0.0940701
0.0745066
0.071055
0.0908422
0.0859474
0.0892861
0.108534
0.106804
0.0929617
0.116691
0.0978666
0.0991995
0.0909289
0.101596
0.0978218
0.102363
0.098277
0.101481
0.103134
0.0955478
0.0992782
0.0982085
0.0982387
0.0984538
0.0954563
0.09077
0.101859
0.0973496
0.0903444
0.0968591
0.0815116
0.0936046
0.106882
0.0899996
0.0980297
0.0899728
0.0953617
0.0838746
0.0947594
0.096164
0.094816
0.0912722
0.0956936
0.0712126
0.0725685
0.0797536
0.089029
0.0918849
0.0952453
0.101291
0.0933255
0.0974766
0.0992435
0.0697674
0.0529941
0.0662488
0.0833632
0.0777242
0.0940902
0.0893353
0.090135
0.10058
0.088832
0.0906304
0.0955904
0.0933684
0.0981615
0.10022
0.0994644
0.0942305
0.09122
0.0973279
0.0989665
0.0949712
0.0921956
0.0987752
0.0937524
0.0960259
0.0997483
0.0936593
0.0866142
0.087115
0.0902973
0.061831
0.0979639
0.0969581
0.0917978
0.0657339
0.0829919
0.0936983
0.0569455
0.0818352
0.063617
0.0565021
0.0715574
0.0660574
0.0886009
0.0974044
0.0908116
0.104004
0.0910286
0.0933762
0.097725
0.0911345
0.0966109
0.0938136
0.0975498
0.0973326
0.0904639
0.0998303
0.0957543
0.0894914
0.0746377
0.0899863
0.10473
0.0915357
0.0860643
0.0745174
0.0588362
0.0533299
0.0623881
0.079835
0.0803897
0.0596564
0.0921185
0.102695
0.0985895
0.103843
0.0928295
0.0992087
0.0964733
0.0977122
0.094444
0.0933933
0.099029
0.0933887
0.0835902
0.098527
0.101172
0.0809052
0.0716297
0.0950874
0.0564993
0.0983796
0.0942703
0.0912459
0.0853125
0.0846329
0.0925161
0.088818
0.0836524
0.0689825
0.0859071
0.0670969
0.0728071
0.0881887
0.0965679
0.095793
0.0577323
0.0992029
0.100352
0.0998952
0.101923
0.0963417
0.100526
0.0993843
0.100455
0.0964264
0.101916
0.0994037
0.0996019
0.102604
0.0996558
0.096546
0.0987214
0.0995335
0.100905
0.0940021
0.0966049
0.100646
0.0907092
0.0994069
0.0958579
0.095995
0.0655183
0.0988982
0.0799522
0.0959693
0.0959032
0.0932991
0.0739189
0.0723894
0.0789052
0.0620983
0.0995445
0.0886398
0.0774125
0.0933475
0.0506852
0.0907746
0.0959771
0.102606
0.100223
0.101116
0.0974572
0.10049
0.099537
0.0996702
0.103154
0.100629
0.100192
0.101938
0.0904365
0.0984815
0.0748036
0.0712553
0.0792728
0.0560212
0.0863498
0.0851471
0.0968771
0.0867197
0.0978148
0.098311
0.103976
0.0998348
0.0996194
0.102467
0.0920172
0.098892
0.0435939
0.0789844
0.0939458
0.0757724
0.093883
0.0898764
0.0594866
0.0687204
0.0707669
0.0658464
0.087009
0.0715281
0.0823546
0.0874897
0.0891656
0.0873295
0.0836328
0.0870422
0.0858651
0.085963
0.0920633
0.0789138
0.0848803
0.0931714
0.0879406
0.087587
0.0864442
0.0892779
0.0907599
0.0922108
0.0656891
0.0564666
0.0954916
0.0882306
0.0889819
0.0957153
0.0904361
0.0949707
0.0914261
0.0627361
0.0860322
0.0624289
0.0913003
0.094389
0.0885527
0.0973042
0.0954291
0.0877159
0.0870345
0.0893976
0.0781284
0.0778212
0.0848959
0.0864554
0.076361
0.0881442
0.103888
0.0750451
0.0747038
0.0860002
0.105874
0.0760257
0.0881005
0.0783811
0.101194
0.0733019
0.106045
0.0875626
0.0780675
0.108411
0.0926317
0.0913312
0.101825
0.0973332
0.0909536
0.0981248
0.0817326
0.0887302
0.0873066
0.0888049
0.0981757
0.0909443
0.0918585
0.0981087
0.0928067
0.0970217
0.101425
0.099814
0.0997504
0.0999507
0.0834256
0.0935813
0.0925522
0.096914
0.0923595
0.0978965
0.0969155
0.098302
0.103553
0.095564
0.0851309
0.10089
0.0878868
0.0983389
0.103489
0.0860669
0.0883037
0.0925809
0.0973345
0.0985657
0.0925267
0.0890133
0.0659382
0.0818061
0.0922505
0.0953985
0.084997
0.0837853
0.068457
0.0662969
0.0707281
0.0865763
0.0859866
0.0766318
0.0657966
0.0695954
0.0868992
0.0963286
0.096367
0.0866407
0.110212
0.096683
0.0768783
0.0843782
0.097176
0.0976326
0.0930453
0.10029
0.0740583
0.0759441
0.0973216
0.0990559
0.099163
0.0950799
0.0675226
0.0686996
0.0861415
0.0716255
0.0971022
0.0955162
0.0953812
0.0988763
0.103119
0.0756556
0.0684341
0.0895363
0.0945174
0.098381
0.0717688
0.0929376
0.0960789
0.0982897
0.0997712
0.0665032
0.0842173
0.0862437
0.0989234
0.103677
0.0906295
0.100883
0.0962834
0.0990646
0.0975391
0.0994058
0.0913039
0.0935805
0.0852895
0.0962561
0.0937094
0.0976769
0.0987075
0.0942247
0.104303
0.0845214
0.10748
0.100038
0.0907899
0.0915919
0.0933446
0.10255
0.0834691
0.0981111
0.0939216
0.102816
0.106717
0.093945
0.103207
0.0802094
0.0980705
0.0971664
0.0847179
0.104206
0.0959962
0.050145
0.0529055
0.0564404
0.0722292
0.088495
0.0937789
0.100421
0.0885118
0.090062
0.0876539
0.0859599
0.0678469
0.0995212
0.0860101
0.0885216
0.0724076
0.0869676
0.0538261
0.0873176
0.0856341
0.0825079
0.0679742
0.0570469
0.0704565
0.0689377
0.0785711
0.086722
0.10093
0.0916602
0.0843411
0.0870967
0.0716222
0.0845123
0.0965414
0.0794102
0.0760739
0.0853547
0.0930044
0.0789107
0.0732427
0.0864675
0.072339
0.0662069
0.0794532
0.0834728
0.0840958
0.0816612
0.0811989
0.0537106
0.0843598
0.0881302
0.0902111
0.076084
0.0982562
0.101987
0.0838831
0.0730382
0.0958925
0.0827504
0.0895245
0.0887961
0.0886053
0.081803
0.0755443
0.0719966
0.0881867
0.0783347
0.0719827
0.0838288
0.0971473
0.089536
0.10134
0.083759
0.0815035
0.0898349
0.0936242
0.0943576
0.0965775
0.0944038
0.0895083
0.0970312
0.076729
0.0906742
0.0888554
0.0938275
0.0940978
0.0826133
0.0830305
0.0878381
0.0949196
0.093656
0.0969057
0.0988445
0.104841
0.0971263
0.0847527
0.0952378
0.0978571
0.066281
0.0607498
0.141242
0.0599265
0.063046
0.0897799
0.106237
0.0725367
0.0996084
0.0663301
0.0620258
0.0667875
0.0779957
0.0608573
0.0940951
0.101693
0.100887
0.0879719
0.0971925
0.0951452
0.11144
0.0954645
0.0904288
0.0917495
0.0757544
0.0692552
0.0925876
0.0973005
0.0949387
0.0968435
0.0873629
0.0675628
0.0801963
0.0942844
0.0958401
0.0963402
0.0873789
0.0925187
0.0963977
0.0986005
0.104688
0.0993973
0.0996242
0.100262
0.103791
0.0644476
0.0733466
0.0876965
0.0915605
0.0812909
0.0673792
0.0881747
0.0564936
0.0916706
0.092213
0.0647069
0.0612062
0.0833888
0.100013
0.0746118
0.0865013
0.0581955
0.064505
0.081761
0.0898034
0.0727462
0.0621935
0.0886053
0.101734
0.0665386
0.0873037
0.073604
0.0890587
0.0911138
0.0953686
0.0958596
0.0912507
0.0943463
0.0760562
0.0846465
0.0807295
0.0989184
0.100358
0.0965804
0.0746003
0.103318
0.102025
0.0971744
0.0978018
0.0899994
0.0978641
0.0962059
0.0995296
0.0888447
0.098604
0.104846
0.102219
0.0955605
0.103987
0.114571
0.0997042
0.0992994
0.112635
0.103305
0.0995243
0.0897877
0.0715178
0.0628167
0.0907472
0.0898235
0.0536026
0.0793395
0.0934253
0.0676635
0.066203
0.0865934
0.0864181
0.0532261
0.0918025
0.0993086
0.0859546
0.0950064
0.0981593
0.0867227
0.10004
0.0977456
0.0921978
0.100584
0.0631592
0.0630359
0.0536696
0.0847891
0.0927994
0.101841
0.0982277
0.101113
0.101395
0.102664
0.100942
0.0982063
0.0745472
0.103443
0.106614
0.0895419
0.087558
0.0976199
0.0938295
0.0669711
0.0991379
0.101472
0.0975825
0.0722089
0.091881
0.102817
0.0946329
0.0998722
0.096452
0.100044
0.0951976
0.0992837
0.0990633
0.0678916
0.0831051
0.0989647
0.0882181
0.0791131
0.0734149
0.0879658
0.0655461
0.0687492
0.0522049
0.0585064
0.0824331
0.0819442
0.0835568
0.0798219
0.0710946
0.06254
0.0642539
0.0879254
0.0742766
0.0855265
0.0534878
0.0780069
0.0854938
0.0608558
0.0846247
0.0535855
0.0876431
0.0689964
0.0851961
0.0850687
0.0978737
0.0805217
0.0832046
0.0518089
0.0846187
0.0598026
0.0749029
0.0851891
0.0531075
0.0779005
0.0785335
0.0918918
0.0926432
0.0908223
0.0965078
0.0978731
0.101299
0.0745906
0.0907515
0.1027
0.0989225
0.101934
0.0918218
0.100433
0.0858309
0.0971956
0.103071
0.100347
0.0971457
0.100561
0.101905
0.0683265
0.0951159
0.0925241
0.0600238
0.0685014
0.0777378
0.0644514
0.0579794
0.0642366
0.0785995
0.0524538
0.0661418
0.0470267
0.078305
0.0684324
0.0792504
0.065045
0.0473978
0.0654933
0.0767166
0.0825828
0.0692188
0.0720429
0.0595641
0.0478527
0.0823597
0.0702541
0.0608893
0.0594735
0.0469079
0.077182
0.0533175
0.0645592
0.0792004
0.0606919
0.0697217
0.0798242
0.0703779
0.082973
0.064855
0.0749184
0.0783672
0.0702896
0.0647619
0.0457959
0.0671599
0.0964879
0.0597362
0.0924197
0.0644244
0.0616525
0.0780888
0.0658096
0.0986019
0.0813418
0.0682487
0.059884
0.0800005
0.0581698
0.0582142
0.0609314
0.0664808
0.0734634
0.0937195
0.0816717
0.064454
0.0611921
0.0847255
0.0364705
0.0681632
0.0650317
0.0651965
0.0534018
0.0637426
0.0953215
0.0957268
0.0678019
0.0618831
0.0952693
0.0531771
0.0686844
0.0619056
0.0757175
0.0650676
0.0632915
0.0774619
0.097864
0.0953686
0.0789593
0.0580217
0.0933363
0.0693145
0.0831522
0.0694119
0.0839337
0.0669735
0.0524244
0.059522
0.0601771
0.0567327
0.0844548
0.0866631
0.0847034
0.0734034
0.0779792
0.0600863
0.0605382
0.0840237
0.0689455
0.0718056
0.0774159
0.0601507
0.0866778
0.0655167
0.0849136
0.0541741
0.0885524
0.0764055
0.0865932
0.061192
0.0903672
0.0603565
0.0868578
0.0863366
0.0555278
0.0860463
0.0882253
0.099028
0.0878214
0.0966351
0.0865081
0.0807564
0.0855977
0.0616289
0.0716009
0.073304
0.0848541
0.0844048
0.087295
0.0831235
0.0775349
0.0860847
0.089694
0.0566458
0.0875171
0.052518
0.084802
0.0574691
0.0881211
0.0871358
0.0874762
0.0740751
0.0854027
0.0872467
0.0640742
0.0890158
0.0472409
0.0564261
0.0797083
0.0529141
0.0870817
0.0939111
0.0943588
0.0325875
0.0480583
0.0799989
0.084423
0.0890744
0.0421143
0.081855
0.0526347
0.0781394
0.0838991
0.0858092
0.0890304
0.0884552
0.0907139
0.0918923
0.0902063
0.0890221
0.0868447
0.0935749
0.084181
0.0945786
0.0868208
0.0874001
0.087664
0.0917678
0.0906701
0.0880262
0.0881986
0.0882111
0.0880775
0.0946768
0.0895911
0.0914494
0.0906749
0.0895682
0.0930219
0.0899039
0.0904371
0.0899054
0.0916143
0.0910314
0.0880005
0.0907216
0.0908241
0.0879616
0.072611
0.0331411
0.0303329
0.064231
0.0343306
0.0312496
0.0609376
0.0737432
0.0718901
0.0388403
0.0688288
0.0736279
0.0294786
0.084953
0.0390141
0.0718027
0.0647492
0.0806662
0.0569843
0.082777
0.067969
0.0702579
0.0675026
0.0815229
0.077373
0.0769894
0.0423126
0.0650966
0.0767146
0.0601482
0.07158
0.0838145
0.0594475
0.0325334
0.0392175
0.0614461
0.0615785
0.0623667
0.0762612
0.0650539
0.0773911
0.0687803
0.0813219
0.0686518
0.0806669
0.0827738
0.0804056
0.0798699
0.0662608
0.0877022
0.0537278
0.0767992
0.0816525
0.0705335
0.0671082
0.0810289
0.0798317
0.082925
0.0541
0.0811478
0.0683204
0.079163
0.0552124
0.0938568
0.0667255
0.0847926
0.0858164
0.0867423
0.085689
0.0999532
0.0863258
0.0874634
0.0776374
0.0870513
0.0788303
0.065404
0.0891483
0.0914699
0.0901297
0.087199