/*--------------------------------*- C++ -*----------------------------------*\
  =========                 |
  \\      /  F ield         | OpenFOAM: The Open Source CFD Toolbox
   \\    /   O peration     | Website:  https://openfoam.org
    \\  /    A nd           | Version:  10
     \\/     M anipulation  |
\*---------------------------------------------------------------------------*/
FoamFile
{
    format      ascii;
    class       volScalarField;
    location    "0.05";
    object      k_0;
}
// * * * * * * * * * * * * * * * * * * * * * * * * * * * * * * * * * * * * * //

dimensions      [0 2 -2 0 0 0 0];

internalField   nonuniform List<scalar> 
114940
(
0.100851
0.0978589
0.100945
0.0979714
0.0986859
0.0976725
0.0979044
0.0976548
0.0975978
0.0978473
0.0975909
0.0974569
0.0974402
0.0977832
0.0978329
0.097758
0.0974131
0.0973919
0.0974217
0.0974276
0.0978342
0.0976955
0.0977943
0.0974048
0.0974303
0.0974306
0.097816
0.0977571
0.0977364
0.0975726
0.0975622
0.0975763
0.0977974
0.0978697
0.0973999
0.0996001
0.0997519
0.0995688
0.0980696
0.0974404
0.0989886
0.0985486
0.102347
0.0985204
0.0977689
0.0997092
0.0977557
0.103197
0.103785
0.0987486
0.0990777
0.0975985
0.0975958
0.0984913
0.103711
0.103487
0.102078
0.101332
0.0984345
0.0974995
0.0975834
0.0981383
0.102704
0.103175
0.102308
0.100895
0.0981159
0.0977263
0.0976064
0.106244
0.103368
0.0989198
0.103275
0.100962
0.0994195
0.102729
0.102552
0.0987574
0.0980744
0.0977362
0.0978378
0.0976513
0.098096
0.0977828
0.0980279
0.0976001
0.097662
0.0977308
0.0976153
0.097548
0.0978384
0.0977351
0.0978537
0.0978611
0.0977272
0.0981496
0.0978044
0.0974692
0.101401
0.100023
0.100578
0.0985619
0.097891
0.103334
0.103318
0.098659
0.103878
0.103357
0.0988395
0.102528
0.103533
0.0992302
0.105785
0.105468
0.103335
0.0996018
0.09939
0.0987198
0.100711
0.101808
0.105577
0.102868
0.101948
0.100593
0.0982785
0.0977438
0.0976858
0.0979097
0.10597
0.10727
0.100001
0.100436
0.101224
0.101475
0.0984834
0.0977876
0.0978605
0.0988011
0.102469
0.102585
0.100649
0.101041
0.101396
0.100776
0.100697
0.100713
0.0993259
0.103507
0.102585
0.101962
0.101284
0.0987946
0.0987973
0.0998958
0.0981632
0.0999614
0.101698
0.0984319
0.102314
0.101691
0.0991169
0.0987438
0.103735
0.103185
0.0990418
0.103086
0.101095
0.102811
0.102889
0.0989763
0.0977497
0.0977221
0.0984664
0.0979066
0.0976545
0.0983764
0.0996825
0.104026
0.102597
0.0986808
0.0637509
0.0966174
0.103459
0.106687
0.105771
0.102159
0.0993219
0.102066
0.0988273
0.102904
0.103525
0.107999
0.10524
0.102143
0.102844
0.0994788
0.105408
0.104056
0.107915
0.103797
0.105325
0.10789
0.10075
0.09903
0.103801
0.100972
0.105704
0.105083
0.108424
0.105019
0.10892
0.102114
0.101917
0.10314
0.102937
0.100371
0.106799
0.108184
0.104863
0.103537
0.103012
0.102466
0.0998582
0.103268
0.104015
0.104653
0.102302
0.10419
0.111793
0.102282
0.113354
0.100572
0.102112
0.100237
0.105879
0.104578
0.106501
0.103855
0.109466
0.101469
0.101416
0.101579
0.108015
0.11683
0.101193
0.112761
0.102883
0.101158
0.100008
0.0996219
0.103407
0.104445
0.0977517
0.0974411
0.097437
0.0977207
0.0981588
0.0979475
0.0976821
0.0965122
0.098571
0.106021
0.102596
0.0986846
0.0958008
0.104605
0.100717
0.107391
0.10216
0.0962486
0.108425
0.100781
0.1057
0.102095
0.102467
0.103231
0.0650121
0.101991
0.108742
0.100497
0.108956
0.100432
0.0994191
0.103549
0.101697
0.0921496
0.0755948
0.0999158
0.109812
0.10521
0.102211
0.10213
0.101819
0.102073
0.103678
0.0642922
0.0616482
0.0991627
0.115232
0.103396
0.101748
0.0998792
0.102042
0.103523
0.103786
0.0962729
0.0587192
0.103869
0.105763
0.113899
0.100391
0.103262
0.100659
0.106342
0.0970929
0.0620474
0.127694
0.120504
0.101498
0.105226
0.10194
0.104789
0.10563
0.106613
0.125412
0.102815
0.103995
0.0998667
0.0986163
0.106766
0.104082
0.0977441
0.0974344
0.0974319
0.0977105
0.097963
0.0975928
0.0974313
0.0919937
0.100457
0.100446
0.0985684
0.0978727
0.105618
0.101015
0.104706
0.103416
0.0989008
0.0880445
0.10027
0.101836
0.107546
0.100458
0.106578
0.103252
0.0981241
0.10591
0.104698
0.100236
0.102793
0.110033
0.100108
0.104421
0.102981
0.0995371
0.10046
0.100138
0.105898
0.101727
0.104393
0.110524
0.100295
0.107125
0.101791
0.0998251
0.103069
0.104075
0.102801
0.102561
0.103239
0.109525
0.101111
0.103161
0.100655
0.101459
0.104562
0.10123
0.107035
0.101087
0.102941
0.105702
0.106805
0.103929
0.0981634
0.100822
0.106097
0.1067
0.101328
0.106082
0.107569
0.126284
0.0981723
0.10207
0.106282
0.100405
0.102692
0.11518
0.104855
0.103411
0.104876
0.105757
0.103385
0.0978157
0.0977261
0.0976774
0.0983568
0.103213
0.101072
0.106556
0.0986345
0.115709
0.101233
0.103992
0.101797
0.119213
0.101196
0.0986126
0.0988695
0.102888
0.103732
0.0987402
0.0975723
0.0988019
0.0985199
0.0994085
0.0992003
0.098115
0.0988801
0.103754
0.103548
0.0981109
0.0978727
0.0989286
0.101233
0.101429
0.0986216
0.098206
0.0989301
0.101692
0.103073
0.0997139
0.101818
0.103279
0.0991375
0.0984937
0.0982165
0.0988495
0.105967
0.101817
0.0982369
0.103311
0.102642
0.100992
0.0984448
0.0985567
0.106842
0.104827
0.0995559
0.0983034
0.0983489
0.102628
0.104754
0.0996901
0.0989259
0.109774
0.105049
0.103353
0.104459
0.106105
0.104286
0.0981453
0.0980735
0.0982912
0.105673
0.101023
0.098513
0.106546
0.101747
0.0982031
0.0976741
0.0994307
0.10297
0.102656
0.0985101
0.0976054
0.0978672
0.0976901
0.0975787
0.0976464
0.0978619
0.097517
0.0974515
0.0974399
0.0977681
0.0977461
0.0974976
0.0975147
0.0975213
0.0973949
0.0974347
0.0974403
0.0978766
0.0979077
0.0978905
0.0977792
0.0974154
0.0974344
0.0974341
0.0975873
0.0979805
0.0983354
0.0976323
0.0976687
0.0974372
0.0975714
0.0976992
0.0980928
0.0976822
0.0975002
0.0976657
0.0984031
0.0978934
0.0977593
0.0973916
0.0976325
0.0973993
0.0977128
0.0976672
0.0974752
0.0975704
0.0976991
0.0975252
0.10311
0.103332
0.102498
0.102078
0.0997793
0.105738
0.100281
0.104828
0.0775377
0.102112
0.0993566
0.0971399
0.107053
0.102461
0.10804
0.0987866
0.0979916
0.0995182
0.0999569
0.102105
0.104826
0.102645
0.10155
0.100307
0.101812
0.100842
0.112979
0.0961527
0.0984383
0.0972807
0.0900646
0.112972
0.0974671
0.100277
0.0983945
0.099844
0.0963993
0.0983035
0.098459
0.0992326
0.0538317
0.100367
0.0914332
0.101283
0.097929
0.0940231
0.100712
0.097687
0.100698
0.096146
0.102462
0.093231
0.100325
0.1022
0.101432
0.0536131
0.104342
0.101991
0.0969798
0.106535
0.0995079
0.102011
0.0594553
0.0920926
0.102486
0.101713
0.0911047
0.0997652
0.102804
0.100758
0.0951477
0.0993441
0.0916059
0.102901
0.10303
0.106986
0.103195
0.0604777
0.102819
0.102042
0.103272
0.101622
0.103415
0.0603909
0.100484
0.0842833
0.101698
0.105469
0.103711
0.0948265
0.0832613
0.0680408
0.0949522
0.105941
0.103274
0.0678733
0.0973612
0.0543851
0.0995993
0.109172
0.101112
0.0630023
0.0969186
0.0924198
0.0646842
0.112527
0.0871336
0.096271
0.0981496
0.0958974
0.0981532
0.112625
0.0978366
0.0864747
0.0971526
0.0981537
0.0979555
0.0987918
0.0953937
0.0985736
0.0974077
0.0994888
0.0569547
0.0909019
0.0945198
0.0934374
0.0953281
0.0962584
0.103862
0.101383
0.0637593
0.0922996
0.111537
0.100265
0.100935
0.0634857
0.0947345
0.101278
0.102783
0.10147
0.0924111
0.0836211
0.1027
0.100334
0.105482
0.102885
0.0905975
0.0872033
0.0749989
0.106543
0.0996661
0.102145
0.0938456
0.0968622
0.0748578
0.0554571
0.101776
0.100091
0.106514
0.0973216
0.0958795
0.0951842
0.0589641
0.102496
0.0997806
0.10128
0.0999017
0.0832362
0.0976873
0.100762
0.0829292
0.0916217
0.0995958
0.101935
0.101125
0.0780974
0.0989943
0.101283
0.102832
0.101364
0.0992793
0.098135
0.0982538
0.101964
0.102235
0.102106
0.103542
0.0981319
0.0979949
0.0978415
0.10211
0.102159
0.101952
0.102854
0.097984
0.0978616
0.0978947
0.10229
0.103355
0.102
0.102821
0.0799321
0.0851567
0.0861886
0.0926203
0.101342
0.0924182
0.0988984
0.0979711
0.0889597
0.0965184
0.101216
0.0989099
0.0697296
0.0788417
0.0950054
0.105054
0.0674264
0.0977344
0.0859673
0.0761489
0.10296
0.106638
0.0980126
0.102271
0.103276
0.069508
0.0979825
0.105573
0.102329
0.109161
0.104278
0.093727
0.100665
0.099085
0.104375
0.100146
0.105129
0.0894106
0.0668169
0.103793
0.0712957
0.101254
0.107648
0.100264
0.0992186
0.100361
0.057823
0.0948508
0.103428
0.102787
0.0998166
0.0548567
0.0999577
0.0907431
0.10188
0.101062
0.10116
0.0992912
0.100733
0.0646775
0.106593
0.104247
0.102243
0.106048
0.0956986
0.0615367
0.100645
0.0960019
0.0998155
0.10062
0.0961823
0.101435
0.0998688
0.100853
0.104882
0.102783
0.0922315
0.0985312
0.0992027
0.0991104
0.0990858
0.0939641
0.0654612
0.103545
0.0964303
0.110263
0.0998889
0.085486
0.0653349
0.0947872
0.0996365
0.075022
0.0661059
0.0902414
0.088191
0.0884763
0.100146
0.102054
0.109086
0.0976277
0.107571
0.100079
0.0668349
0.103308
0.102027
0.101242
0.103852
0.105379
0.105783
0.101346
0.0890178
0.105373
0.10444
0.102475
0.102854
0.0953099
0.0829795
0.0719027
0.103415
0.0615686
0.0900695
0.0958041
0.101471
0.0789658
0.0970929
0.1178
0.0985267
0.102861
0.0997297
0.0747486
0.101177
0.0654856
0.0996129
0.10203
0.100553
0.102949
0.0917887
0.0875993
0.0731367
0.097215
0.0943948
0.102931
0.100772
0.0571735
0.0963547
0.116885
0.098573
0.103608
0.0997812
0.0590479
0.102034
0.092396
0.102918
0.0957851
0.101316
0.103501
0.100471
0.0800315
0.0758838
0.0920531
0.0563684
0.0967218
0.102576
0.101458
0.0585566
0.105852
0.114744
0.0988587
0.101534
0.100279
0.0600932
0.100103
0.0918944
0.100721
0.0997681
0.104656
0.102702
0.0924606
0.0992949
0.110577
0.0992223
0.100639
0.0882282
0.0926799
0.101626
0.0865072
0.0945929
0.101519
0.101812
0.105111
0.102706
0.10086
0.104235
0.10071
0.10429
0.101382
0.104843
0.102276
0.103643
0.108314
0.099887
0.102432
0.101924
0.0977959
0.0979863
0.0978482
0.0978998
0.10109
0.101876
0.101938
0.0976989
0.0980042
0.0979454
0.0979313
0.102025
0.0940136
0.0887553
0.0950086
0.0880633
0.0940211
0.0790837
0.0859828
0.097703
0.101062
0.0964606
0.0888728
0.0944937
0.0947291
0.0949715
0.0861129
0.0987967
0.0798526
0.0763316
0.0941634
0.0880066
0.0949767
0.0828433
0.0983889
0.0568076
0.0948601
0.100385
0.0936042
0.0938718
0.0992713
0.0974392
0.0365082
0.0865878
0.0861424
0.100683
0.086423
0.0852984
0.101108
0.096358
0.0904244
0.0693448
0.0876454
0.0875394
0.057985
0.0885972
0.0625812
0.0885447
0.099928
0.0929745
0.098201
0.0956698
0.0975221
0.0965421
0.0621526
0.0933036
0.0542212
0.0573396
0.0628122
0.0486646
0.0597061
0.0937735
0.0559189
0.0724858
0.0612945
0.069786
0.0926894
0.0905371
0.0971528
0.0753416
0.102394
0.10002
0.0999797
0.0921905
0.0908487
0.0767725
0.0825678
0.0994545
0.0825225
0.0919739
0.0983766
0.0950162
0.100219
0.0968486
0.0977934
0.0700613
0.101314
0.0932645
0.0840259
0.0861366
0.102798
0.0935156
0.0890133
0.0975915
0.0921578
0.062946
0.0898542
0.0936521
0.0572379
0.101042
0.0978713
0.067976
0.0986278
0.0726933
0.0999525
0.0991364
0.0631725
0.0989301
0.0826326
0.0700595
0.0642465
0.0644234
0.0909995
0.0732358
0.0806463
0.0716496
0.0820683
0.0657095
0.0628922
0.0727032
0.0744113
0.0931853
0.0591473
0.0819011
0.0788739
0.0825894
0.0806211
0.0943302
0.0952605
0.0707414
0.094487
0.0945466
0.09611
0.0948663
0.0957177
0.084198
0.0992247
0.10221
0.0624598
0.0993233
0.0659927
0.0727431
0.0819867
0.0660137
0.0987883
0.0999907
0.075683
0.0798839
0.0661367
0.067582
0.0819231
0.0843039
0.0944635
0.0692472
0.0942456
0.0761405
0.0767629
0.10555
0.0980335
0.0915557
0.0983096
0.0712609
0.0800206
0.0754213
0.100928
0.0986411
0.0921641
0.0983617
0.0914271
0.0866461
0.0665656
0.0598023
0.0772339
0.0820375
0.0667616
0.0674545
0.0941264
0.0804207
0.0893968
0.0857853
0.0900263
0.0679365
0.0855071
0.066591
0.0711622
0.067323
0.0821067
0.0830564
0.0829046
0.0715461
0.0627262
0.105693
0.0978769
0.0820705
0.096878
0.0867627
0.0701907
0.0622709
0.104031
0.0986628
0.0748779
0.098568
0.0790566
0.0682673
0.0765624
0.0844211
0.0867581
0.0675837
0.0882231
0.0694085
0.0735376
0.097481
0.0893557
0.0699785
0.0917195
0.0727603
0.0703362
0.0700778
0.064826
0.0688031
0.0670968
0.0665837
0.0687358
0.0705231
0.0950455
0.0654318
0.0899291
0.0809435
0.0963889
0.0946255
0.0646109
0.0946377
0.10092
0.0828364
0.0785781
0.101285
0.0970038
0.0645861
0.096334
0.100899
0.0774402
0.0761288
0.101759
0.0976828
0.0647973
0.101053
0.105109
0.0816532
0.0880861
0.0812493
0.1052
0.08825
0.0808176
0.102122
0.0988978
0.100946
0.101227
0.101647
0.107916
0.101732
0.098683
0.107858
0.101196
0.100727
0.0971953
0.0989059
0.107692
0.101244
0.0997811
0.100269
0.105147
0.0829818
0.100855
0.0943327
0.0837948
0.105733
0.0829769
0.0828738
0.0599536
0.093687
0.0784941
0.0697033
0.0835583
0.0555773
0.0732483
0.0776148
0.0663869
0.0555363
0.0983501
0.0975329
0.0504649
0.0881134
0.0611581
0.051927
0.0852494
0.0982623
0.0939996
0.0648944
0.0880469
0.0602532
0.0989492
0.0683485
0.0904875
0.098955
0.0896009
0.0429707
0.0601597
0.0928851
0.0841712
0.0907594
0.0943033
0.0708647
0.0835966
0.0646191
0.0978834
0.0964805
0.101224
0.0847774
0.106677
0.0900664
0.0977602
0.100643
0.108006
0.0854296
0.100013
0.0910609
0.103344
0.0999369
0.0858038
0.0991791
0.0832079
0.10017
0.0906153
0.101447
0.0956584
0.0918644
0.0786986
0.104002
0.0926182
0.0864767
0.0775563
0.0745958
0.090316
0.0911633
0.0925964
0.0979832
0.0720629
0.0742812
0.0957939
0.062032
0.0968122
0.0916556
0.0978089
0.0821949
0.0757768
0.0919701
0.0621815
0.0974299
0.0969334
0.0910185
0.097384
0.1032
0.0936906
0.0975897
0.0923194
0.0986513
0.0892109
0.0716356
0.0946687
0.102767
0.0702433
0.0906101
0.0721392
0.0828366
0.0908555
0.0710594
0.093782
0.0946099
0.10643
0.098737
0.100552
0.0838161
0.0977882
0.101347
0.0740307
0.0689374
0.0985898
0.0559523
0.102045
0.102263
0.101687
0.0672269
0.0697136
0.0980842
0.0563601
0.0937791
0.101942
0.0899602
0.0846262
0.08965
0.0949479
0.0953545
0.0890443
0.101081
0.0849008
0.0903495
0.084854
0.0927845
0.0978911
0.103787
0.100062
0.10068
0.101808
0.0701499
0.100478
0.0919004
0.0949325
0.103359
0.0615486
0.102171
0.0918955
0.0962865
0.100684
0.0840336
0.10408
0.096466
0.100641
0.0681196
0.0849885
0.0969992
0.0979464
0.0976579
0.101267
0.102015
0.100956
0.101049
0.100084
0.0996687
0.100967
0.107555
0.104149
0.101425
0.10897
0.102791
0.105431
0.0992042
0.0994235
0.098397
0.105849
0.0995297
0.101542
0.0992252
0.101794
0.0979236
0.0987729
0.1105
0.106532
0.103032
0.106112
0.0978769
0.0979
0.0978924
0.102207
0.102579
0.102407
0.103617
0.0987526
0.0977698
0.0981213
0.109962
0.101766
0.103153
0.101837
0.0979613
0.0983938
0.0984813
0.102237
0.103159
0.104559
0.104885
0.0983046
0.100451
0.101957
0.103313
0.100888
0.109649
0.104709
0.0677738
0.0768611
0.0815125
0.0814466
0.104015
0.10188
0.0993865
0.101754
0.104927
0.101259
0.0999084
0.100679
0.0946018
0.102709
0.0993702
0.0991974
0.0972222
0.103446
0.0845191
0.0977108
0.105612
0.0730696
0.0977092
0.0693558
0.0994508
0.105426
0.106456
0.101047
0.106507
0.10526
0.102481
0.10058
0.0984242
0.0945225
0.0803029
0.0820098
0.1032
0.0985913
0.095826
0.0648406
0.0951678
0.105417
0.0948556
0.0971421
0.0979749
0.101291
0.10699
0.102521
0.108487
0.102818
0.06737
0.100914
0.103991
0.0980222
0.0828681
0.0704585
0.0891225
0.106957
0.0976081
0.0982322
0.0915732
0.0949852
0.108584
0.0779717
0.099573
0.0944811
0.101865
0.103417
0.100509
0.103274
0.102216
0.0989894
0.10354
0.109981
0.106083
0.102383
0.104043
0.0606754
0.0933523
0.0998832
0.0622178
0.0861514
0.0574454
0.0866215
0.0848302
0.0734336
0.0864097
0.0694391
0.0912827
0.0775955
0.0908836
0.0790377
0.0991484
0.089308
0.0976386
0.104269
0.0983368
0.0988005
0.104776
0.101946
0.0990207
0.0999861
0.0978906
0.101776
0.0827259
0.0861909
0.0939023
0.0980092
0.0667269
0.0601747
0.0668438
0.081718
0.0911174
0.0934226
0.100815
0.101136
0.101072
0.104101
0.102074
0.114044
0.0777444
0.0957172
0.0909639
0.0865233
0.0952373
0.0859535
0.0967864
0.0581965
0.0842912
0.084302
0.0563438
0.0728312
0.0779552
0.0690459
0.100679
0.104923
0.100531
0.106816
0.102002
0.105606
0.0934163
0.0791511
0.0983577
0.0935635
0.0925012
0.0998564
0.0914787
0.0699189
0.0578856
0.0815053
0.0876884
0.0877852
0.0530836
0.0977233
0.104927
0.107825
0.10281
0.101698
0.104676
0.107682
0.0711611
0.0964821
0.102839
0.103434
0.101829
0.0903877
0.10259
0.0924339
0.0957123
0.0612444
0.100724
0.0994738
0.100751
0.0983272
0.0950743
0.100721
0.101191
0.102251
0.103379
0.101025
0.101209
0.102182
0.072527
0.0683827
0.104163
0.0848593
0.0946032
0.10018
0.095948
0.102775
0.103471
0.0994268
0.103085
0.101876
0.10525
0.102354
0.0847492
0.104846
0.101387
0.0991531
0.0957788
0.100187
0.104388
0.100759
0.101282
0.100131
0.101888
0.101628
0.10583
0.104962
0.100498
0.100251
0.101648
0.10157
0.0995368
0.0992255
0.0981526
0.102309
0.101582
0.102063
0.0988284
0.0980404
0.0984035
0.0985046
0.101938
0.102002
0.106867
0.0979159
0.0980279
0.0982803
0.0980575
0.1024
0.104418
0.104593
0.0978398
0.0981595
0.0983842
0.0983624
0.101699
0.101656
0.101597
0.097721
0.0981174
0.0980119
0.0980643
0.0994483
0.104489
0.0991206
0.0990346
0.0985274
0.0983797
0.0983181
0.10241
0.105919
0.0994778
0.0983397
0.0978699
0.0980983
0.0809114
0.0933785
0.0831056
0.100778
0.0957228
0.0988705
0.100925
0.102023
0.0943367
0.101607
0.0926841
0.102708
0.0952258
0.062443
0.105968
0.110192
0.0589333
0.0853549
0.0604802
0.0588878
0.0984748
0.100417
0.0990387
0.073139
0.0630729
0.105925
0.0589628
0.108526
0.0604722
0.0854323
0.0576916
0.0628909
0.0986039
0.0954491
0.0848558
0.0972828
0.0875015
0.0620846
0.0987579
0.0984478
0.100295
0.095651
0.0990965
0.0978787
0.0993558
0.0985332
0.0973474
0.0979565
0.0970423
0.097379
0.0978009
0.0990897
0.0773068
0.0593186
0.0702723
0.0845124
0.0467861
0.0811784
0.0952791
0.0931655
0.0949297
0.095898
0.0986508
0.0667643
0.0659809
0.0932097
0.0963623
0.0950172
0.0916732
0.0655908
0.0753579
0.0957177
0.0956012
0.0902868
0.0658351
0.0903505
0.0648978
0.0951224
0.079184
0.0630517
0.0946657
0.09362
0.101341
0.0794127
0.101342
0.0772209
0.094682
0.0988104
0.0956741
0.0994205
0.0984096
0.0967251
0.0837074
0.0882233
0.0891588
0.0658515
0.0910257
0.0868183
0.0861342
0.0924388
0.0877221
0.0847651
0.0762136
0.0879781
0.0660961
0.0911977
0.0665101
0.101316
0.09433
0.102313
0.0971075
0.0983091
0.0914818
0.0648725
0.0639223
0.0604745
0.0818764
0.0775577
0.0991541
0.100181
0.0953538
0.098898
0.0751579
0.0850588
0.0512692
0.0508429
0.0944245
0.10509
0.0937193
0.0668926
0.0923196
0.0875615
0.0893962
0.0852162
0.0538894
0.0577903
0.0734864
0.0619864
0.0643163
0.0886943
0.102362
0.098117
0.0844801
0.0996772
0.067579
0.0916755
0.0636416
0.0605005
0.0798277
0.0637219
0.0803691
0.0824125
0.101112
0.096073
0.0941883
0.0974944
0.0957759
0.082959
0.075752
0.0750856
0.0823214
0.0884072
0.0805817
0.0797181
0.100772
0.0949943
0.0922603
0.0983524
0.090777
0.0990779
0.056267
0.0586056
0.0686373
0.0850947
0.0716455
0.0635935
0.0699598
0.0638208
0.0983873
0.104308
0.099423
0.0989621
0.101078
0.0862902
0.0413667
0.0734821
0.0814932
0.0647436
0.0725942
0.0529066
0.0568638
0.039766
0.0862899
0.0653241
0.0863538
0.0691942
0.0883033
0.0855638
0.0639151
0.0957382
0.0932068
0.0891939
0.0841166
0.095467
0.101935
0.0647855
0.0874163
0.0938542
0.065842
0.0640193
0.0912109
0.0874495
0.0659524
0.0600596
0.112835
0.0583016
0.113303
0.0582154
0.0883234
0.0586716
0.0628686
0.0828856
0.0885802
0.0498298
0.0817922
0.0640847
0.0501369
0.060021
0.0584552
0.11165
0.112451
0.0885734
0.0573916
0.0587466
0.0539516
0.0954131
0.0867304
0.0977579
0.0610842
0.0973534
0.0734324
0.0613439
0.0834031
0.0510145
0.0845488
0.0641687
0.0851343
0.0573761
0.0988297
0.097449
0.0975962
0.0968109
0.0992572
0.100229
0.0987461
0.0982066
0.100879
0.0982905
0.094644
0.0994085
0.101883
0.0984172
0.0979893
0.0971519
0.0906468
0.100416
0.0986252
0.0981601
0.099431
0.0789364
0.0836909
0.0629488
0.0572704
0.0617988
0.0790371
0.0826585
0.0681186
0.057564
0.0861738
0.0770892
0.0958719
0.0968111
0.0902961
0.0979823
0.0600494
0.0637164
0.0844326
0.083628
0.0863644
0.0832568
0.0496447
0.0857497
0.0937582
0.0987088
0.100795
0.0893437
0.0903968
0.0886033
0.100135
0.0983916
0.107669
0.0908251
0.102192
0.0943127
0.077071
0.0715991
0.0912218
0.0862777
0.0894445
0.108714
0.10703
0.0932401
0.116842
0.09812
0.0994228
0.0912558
0.101848
0.0980922
0.102518
0.0984749
0.101885
0.103441
0.0957528
0.0996197
0.0985082
0.0985287
0.0986267
0.0958417
0.0910722
0.101957
0.0974958
0.0906744
0.0970252
0.0818535
0.0938305
0.10719
0.0904496
0.0982859
0.0902797
0.0956005
0.0843788
0.0950207
0.0964934
0.0950741
0.091602
0.0959372
0.0718803
0.0732954
0.0804096
0.0893343
0.0923283
0.0954131
0.101416
0.0937733
0.0978916
0.0996044
0.0703886
0.0535618
0.0668243
0.0839338
0.0780711
0.0946974
0.0898207
0.0904252
0.100723
0.0891827
0.0909655
0.0958924
0.0939212
0.0983291
0.100348
0.0997858
0.0945291
0.0915667
0.0976012
0.0996439
0.0953315
0.0924959
0.0989815
0.094015
0.0964549
0.0999859
0.094106
0.0870449
0.0875346
0.0905907
0.0624416
0.0984591
0.0971393
0.0949033
0.0660517
0.0833622
0.0940377
0.0575152
0.082298
0.0637391
0.0570887
0.0722347
0.0666927
0.0889704
0.0978078
0.0911025
0.104147
0.0913737
0.0936981
0.0979962
0.0914718
0.0969159
0.0941132
0.0977758
0.09755
0.0909454
0.100077
0.0962091
0.0898222
0.0751803
0.0902795
0.105116
0.0918646
0.0866306
0.0749885
0.0593415
0.0538581
0.0628571
0.0806708
0.0812263
0.0601022
0.0925846
0.102873
0.0986992
0.103949
0.0930751
0.0994147
0.0967668
0.0981987
0.0949508
0.093704
0.0992423
0.0937206
0.0838985
0.0987807
0.101247
0.0813349
0.0726509
0.0954122
0.0569109
0.0986984
0.094541
0.09166
0.0857556
0.0849246
0.0927881
0.0893031
0.0840483
0.0695471
0.0861525
0.0676327
0.0729652
0.0886995
0.0974688
0.0961201
0.0581354
0.0993048
0.100594
0.0999825
0.10195
0.0964858
0.100653
0.0994327
0.100554
0.0965826
0.101909
0.0994432
0.0997543
0.102672
0.0996996
0.096715
0.0988549
0.0996096
0.100894
0.0941976
0.0967399
0.10064
0.0909762
0.0994944
0.0960447
0.0962304
0.0660989
0.0990885
0.0803552
0.096238
0.0962376
0.0935862
0.0745945
0.0730295
0.0794586
0.0626396
0.0997534
0.0890868
0.0779883
0.093561
0.0511642
0.0909993
0.0961622
0.102739
0.10044
0.101257
0.0976956
0.10074
0.0996291
0.0998216
0.103329
0.100671
0.100232
0.102122
0.0907157
0.0985436
0.0754584
0.0718773
0.0798165
0.0565115
0.086669
0.0856835
0.0973258
0.0868864
0.0979848
0.0985345
0.104089
0.099874
0.0997029
0.102655
0.0922979
0.0989318
0.0440766
0.0796338
0.0943146
0.0763704
0.0943496
0.0904477
0.0599859
0.0693238
0.0712592
0.0663763
0.0874432
0.0721657
0.0828983
0.088031
0.0896889
0.0877756
0.0839623
0.0874903
0.0864112
0.0863488
0.0924175
0.0793627
0.0853184
0.093683
0.0884909
0.0879321
0.0869571
0.0898032
0.0911201
0.0926718
0.0661679
0.0568609
0.0958961
0.0885885
0.0892076
0.0961472
0.0906943
0.0954091
0.091792
0.0632162
0.0864391
0.0629888
0.0916276
0.0947852
0.0887683
0.0977257
0.0958481
0.0879233
0.087379
0.0898977
0.0787548
0.0783204
0.0852507
0.0868288
0.0766739
0.0884115
0.104199
0.0754278
0.0752372
0.0863088
0.106219
0.0761988
0.0883342
0.0788581
0.101434
0.0737145
0.106462
0.0877684
0.0784251
0.108537
0.0928875
0.0918109
0.102111
0.0976148
0.0912404
0.0983865
0.0820978
0.089214
0.0877872
0.0892831
0.0985649
0.0911924
0.0921031
0.0983006
0.0931667
0.0973098
0.101535
0.0998895
0.0998232
0.100052
0.0838405
0.0938319
0.0928318
0.0970806
0.0926293
0.0982997
0.0970566
0.0985229
0.103814
0.095954
0.0858885
0.101246
0.0883647
0.0985597
0.103773
0.086529
0.0887565
0.0930979
0.097495
0.0987893
0.0927987
0.089457
0.0664192
0.0822774
0.0924716
0.0956567
0.0853452
0.0841381
0.0690705
0.0667933
0.0711219
0.0871259
0.0864072
0.0771989
0.0664623
0.0699841
0.0874134
0.0965478
0.0966765
0.0869816
0.110406
0.0968691
0.077372
0.0852795
0.0973931
0.0979138
0.0933118
0.100536
0.0747454
0.0766921
0.0976081
0.0992913
0.0993951
0.0953658
0.0680475
0.0693028
0.0864914
0.0722971
0.0973181
0.0958125
0.0956683
0.0991095
0.103433
0.0759671
0.0688078
0.0899351
0.0950853
0.0986221
0.072289
0.0934419
0.0963504
0.0985516
0.100363
0.0669383
0.0843801
0.0864589
0.0996086
0.104336
0.0911398
0.100948
0.0965539
0.0992583
0.0977951
0.0996267
0.0917423
0.0938755
0.0855562
0.096542
0.0942322
0.0978857
0.0989494
0.0946131
0.104444
0.0853668
0.107709
0.100278
0.0913747
0.0918666
0.0936726
0.102671
0.0839449
0.0983653
0.09426
0.102981
0.106854
0.0942626
0.103505
0.0807026
0.0982683
0.0974233
0.0852978
0.104492
0.0963247
0.0506378
0.0534301
0.0570338
0.0730548
0.0889364
0.093963
0.100613
0.0888549
0.0903543
0.0881056
0.0862324
0.0681291
0.0995582
0.0863701
0.0888697
0.0728033
0.08754
0.0542505
0.087625
0.0860624
0.0828867
0.0684612
0.0576319
0.0709333
0.0691877
0.0790508
0.0871954
0.100887
0.0921464
0.084952
0.0873116
0.0720534
0.0846328
0.0969577
0.080036
0.0766688
0.0855348
0.0934272
0.0793995
0.0736272
0.0869463
0.07293
0.0668418
0.0803944
0.083899
0.0846815
0.0818277
0.081946
0.0542029
0.0848194
0.0885605
0.0906271
0.0766629
0.0983403
0.10214
0.084067
0.0735507
0.0961751
0.0831861
0.0899887
0.0893055
0.0886074
0.0818175
0.0762074
0.0726801
0.0887396
0.0786065
0.072526
0.0841821
0.0972188
0.0899285
0.101251
0.0838797
0.0821228
0.0904633
0.0941634
0.0946266
0.0970517
0.0946073
0.0898141
0.0976069
0.0772346
0.0910774
0.0893067
0.0940578
0.0943427
0.0829787
0.083395
0.0882659
0.0952056
0.0939495
0.0972813
0.0990413
0.105118
0.0974826
0.0851032
0.0954936
0.0980008
0.0667484
0.0610078
0.135544
0.0604329
0.0636059
0.0901308
0.106714
0.0732508
0.0999392
0.0668573
0.0625306
0.0673268
0.0786807
0.0612104
0.0945436
0.10218
0.10128
0.0883876
0.0975133
0.0955424
0.111843
0.0957371
0.090726
0.0919947
0.0762726
0.0700012
0.0929555
0.0976954
0.095224
0.0973296
0.0877829
0.068241
0.0805167
0.0945698
0.0962757
0.0965924
0.087829
0.0927724
0.0966746
0.0988262
0.104814
0.0996643
0.0998693
0.100424
0.10381
0.0650557
0.0739439
0.0878593
0.091949
0.0820982
0.0677045
0.0885297
0.0570691
0.0927675
0.092448
0.0652577
0.0617145
0.0837201
0.100321
0.0754378
0.0868462
0.0588107
0.0650097
0.0823434
0.0898999
0.0735615
0.0627311
0.0888821
0.102042
0.0668326
0.0876134
0.0741606
0.0897536
0.0917342
0.0958394
0.0960708
0.0915764
0.0946839
0.0765388
0.0852695
0.0812278
0.0991732
0.10053
0.0972543
0.0750697
0.103709
0.102204
0.0973458
0.0980061
0.0904341
0.0980352
0.0964928
0.0997612
0.0891523
0.0987832
0.104923
0.102382
0.0958935
0.104534
0.115139
0.0998435
0.0993733
0.113128
0.103867
0.0995808
0.0898601
0.0721817
0.0633126
0.0912269
0.0905168
0.0540582
0.0798255
0.093474
0.0679019
0.0661356
0.086832
0.0867914
0.0535989
0.0920776
0.0998118
0.0866234
0.0952515
0.0984704
0.0871687
0.100598
0.097888
0.0922147
0.100814
0.0636054
0.0629539
0.0540716
0.0851387
0.0930858
0.102305
0.0983044
0.101567
0.101599
0.103298
0.101406
0.0982859
0.0754431
0.103577
0.106984
0.0898355
0.0884779
0.0978186
0.0940744
0.0673595
0.0992831
0.101568
0.0977892
0.0726865
0.0922128
0.102895
0.0949236
0.0999602
0.0966296
0.100129
0.0953827
0.0994138
0.099189
0.0684997
0.0836183
0.0992861
0.0886864
0.0796097
0.0740229
0.0884285
0.0661216
0.0693573
0.0526073
0.0589678
0.0829225
0.0825523
0.0839699
0.0804246
0.0716509
0.0631231
0.0648217
0.088345
0.0748728
0.085967
0.0539674
0.0785641
0.0859195
0.0613571
0.0848552
0.0540644
0.0882055
0.0695644
0.085525
0.0855358
0.0982723
0.0810659
0.0836375
0.0523151
0.0851774
0.0603137
0.0754983
0.0855286
0.0536196
0.0785485
0.0790966
0.0921734
0.0929075
0.0912266
0.0967052
0.0980968
0.101539
0.0752127
0.0909924
0.102807
0.0992821
0.102074
0.0920923
0.100652
0.0863129
0.0974511
0.103292
0.100599
0.0974216
0.100621
0.101978
0.0689745
0.0956204
0.0928739
0.0605064
0.0690257
0.0784055
0.065081
0.0586177
0.064957
0.0792623
0.0530346
0.0668681
0.0474226
0.0788645
0.0690783
0.079886
0.0656755
0.047829
0.0661333
0.0772656
0.0830082
0.0699048
0.0726303
0.0602309
0.0483205
0.0828398
0.0708868
0.0614486
0.0600559
0.0474374
0.0777906
0.0538866
0.0652531
0.0797438
0.0612674
0.0703331
0.0802237
0.0709699
0.0836505
0.0656068
0.0755947
0.0786809
0.0709484
0.0653752
0.046479
0.06782
0.0969931
0.0602114
0.0928057
0.0650533
0.0621541
0.0787295
0.0664741
0.0991531
0.0817504
0.0689091
0.0605835
0.0808002
0.0587878
0.0588454
0.0615384
0.0671723
0.0739164
0.0940882
0.0820293
0.0649487
0.0618468
0.0854333
0.0369211
0.0688167
0.0657367
0.0659359
0.0540584
0.0643569
0.0957131
0.0961076
0.0684456
0.0624495
0.0956972
0.0537223
0.0693095
0.0624637
0.076306
0.0657443
0.0638581
0.0781075
0.0980976
0.0958049
0.0797226
0.0585577
0.0937271
0.0699597
0.0837189
0.0700068
0.08461
0.0676328
0.0530843
0.0602284
0.0606119
0.057273
0.0849876
0.0871238
0.0851974
0.0740922
0.0786683
0.0605822
0.0610528
0.0844609
0.0695068
0.0723977
0.0779667
0.0606513
0.0870988
0.0660308
0.0852664
0.0546422
0.0889197
0.0770236
0.08698
0.0617265
0.0907675
0.0607454
0.0872549
0.0866814
0.0559902
0.0864933
0.0886856
0.0992483
0.0882268
0.0968176
0.0868276
0.0814289
0.086061
0.0621328
0.0722252
0.0738816
0.0852324
0.0849075
0.0877586
0.0835969
0.0781479
0.0865266
0.0900133
0.0570854
0.0880902
0.0530317
0.0851299
0.0579831
0.0886166
0.0874895
0.0881053
0.0746517
0.0858103
0.087583
0.0645746
0.0894771
0.0484611
0.0569351
0.0802103
0.0536891
0.087479
0.0944659
0.0948419
0.0340496
0.0487273
0.0805663
0.0847464
0.0896165
0.0428022
0.0822882
0.0532919
0.0787582
0.0843057
0.0861764
0.0895543
0.0889052
0.0912563
0.0921252
0.0907615
0.0892625
0.0873613
0.0938773
0.0846781
0.0947827
0.0873181
0.0879015
0.0881455
0.0920791
0.0912417
0.0883397
0.0887868
0.0884777
0.0883453
0.0949171
0.0898561
0.0917623
0.0910572
0.0898937
0.0934123
0.0902973
0.0908159
0.0903612
0.0919596
0.0915059
0.0882828
0.0910927
0.0911772
0.088264
0.0731311
0.0338251
0.0309899
0.0647122
0.0349339
0.0318369
0.0614913
0.0742382
0.0720572
0.0395028
0.0693812
0.0743357
0.0303151
0.0855953
0.0395279
0.0724835
0.0654682
0.0812011
0.0574958
0.0830729
0.068587
0.0708658
0.0679821
0.082111
0.0779885
0.0771416
0.0428743
0.0657968
0.077269
0.0606524
0.0717955
0.0840907
0.0599973
0.0331793
0.0399154
0.0621118
0.0622338
0.0629805
0.0770414
0.0658161
0.0779421
0.0693766
0.0819626
0.0693129
0.0810871
0.0832483
0.0809885
0.0803566
0.0668563
0.0881368
0.0542734
0.0773678
0.0823267
0.0711294
0.067902
0.0813884
0.0804434
0.0834102
0.0545898
0.0817704
0.0689992
0.0794992
0.0557959
0.0942331
0.06721
0.085151
0.0861346
0.0871043
0.0860861
0.100203
0.0865804
0.0878243
0.0780425
0.0874431
0.0792167
0.0660189
0.0894346
0.0919565
0.0906879
0.0875166