/*--------------------------------*- C++ -*----------------------------------*\
  =========                 |
  \\      /  F ield         | OpenFOAM: The Open Source CFD Toolbox
   \\    /   O peration     | Website:  https://openfoam.org
    \\  /    A nd           | Version:  10
     \\/     M anipulation  |
\*---------------------------------------------------------------------------*/
FoamFile
{
    format      ascii;
    class       volScalarField;
    location    "0.05";
    object      nut;
}
// * * * * * * * * * * * * * * * * * * * * * * * * * * * * * * * * * * * * * //

dimensions      [0 2 -1 0 0 0 0];

internalField   nonuniform List<scalar> 
114940
(
0.0090314
0.00975677
0.00896119
0.00970646
0.00959936
0.00984847
0.00978574
0.00989908
0.00991175
0.00982092
0.00990124
0.009938
0.00993185
0.00979119
0.00984451
0.00977549
0.00995015
0.0099604
0.00995034
0.00993592
0.0097582
0.00988712
0.00976097
0.00995387
0.00994074
0.00993325
0.0097602
0.00986832
0.00987664
0.00981609
0.00985473
0.00981508
0.00985456
0.00983337
0.00996821
0.00776027
0.00769232
0.00934552
0.00977911
0.00995323
0.0082247
0.00860753
0.00869062
0.00966322
0.00986142
0.00772263
0.00936978
0.00602388
0.00837943
0.00959719
0.00794568
0.00953889
0.00954653
0.00871879
0.00598898
0.00839548
0.0086318
0.00629706
0.00860498
0.00960858
0.00953604
0.00908014
0.00622478
0.00855361
0.00858748
0.00647713
0.00889883
0.009223
0.00935414
0.00528727
0.00850623
0.00956068
0.00841779
0.00644247
0.00710581
0.0060038
0.00855523
0.00955686
0.0096505
0.00962651
0.00966022
0.0097377
0.00974054
0.00983182
0.00968718
0.0099124
0.00989605
0.00978069
0.00988874
0.00990199
0.00973328
0.00987478
0.0098438
0.00975921
0.00983837
0.00975462
0.00986954
0.00995305
0.00362953
0.00748567
0.0090315
0.00965279
0.00982886
0.00308839
0.00321438
0.00871055
0.00580842
0.0084173
0.00957685
0.00337757
0.0031224
0.0088376
0.00700559
0.00562518
0.00839574
0.00855994
0.0085319
0.009194
0.00908925
0.00699478
0.00557128
0.00856563
0.00603552
0.00700777
0.00907559
0.00954005
0.00952828
0.00930523
0.00724999
0.00539824
0.00912838
0.00905798
0.0062601
0.00663873
0.00906081
0.00946475
0.00938817
0.00853205
0.00659154
0.00853643
0.00903021
0.00635468
0.00667328
0.00891649
0.00717542
0.00698124
0.00801733
0.00595308
0.00872265
0.00875791
0.00619942
0.0073347
0.00801989
0.00755932
0.00894097
0.00744968
0.00890318
0.00960931
0.00860672
0.00625542
0.00804152
0.00831425
0.00578554
0.00859413
0.00953621
0.00847431
0.00645722
0.00601155
0.00844735
0.00954493
0.00978234
0.00982189
0.00962176
0.00982667
0.00989466
0.0027145
0.00771894
0.00568829
0.00862277
0.00961456
0.000274696
0.00157448
0.00300368
0.00519465
0.00552409
0.00864908
0.00123973
0.00228739
0.00156446
0.00298489
0.00679506
0.00624917
0.00557621
0.00874763
0.00266035
0.0036249
0.00132488
0.00142681
0.00271506
0.00321864
0.00565536
0.00528164
0.00894574
0.00736952
0.00579583
0.00324061
0.00142456
0.00139061
0.00299434
0.00651034
0.00520075
0.00873829
0.00973282
0.00624842
0.00613067
0.00331747
0.00135118
0.0012903
0.00301257
0.00607595
0.00605817
0.00875389
0.00925329
0.00620664
0.00579512
0.00260819
0.00319434
0.00309067
0.00264486
0.00656618
0.00477288
0.00908406
0.00667113
0.00736598
0.00560999
0.00313794
0.00290661
0.00628175
0.00514102
0.00892971
0.00627646
0.0066339
0.00549016
0.00230081
0.00705056
0.00466892
0.00861498
0.00636725
0.00718252
0.00810247
0.00575184
0.00835001
0.00975839
0.0099354
0.00992607
0.00978074
0.00970783
0.00981575
0.00988733
0.00140185
0.00879933
0.00519539
0.00862016
0.00961425
0.00252735
0.00272215
0.00690624
0.0051712
0.00864629
0.00132209
0.00252224
0.00730099
0.00541125
0.008752
0.00316871
0.00334519
0.000132335
0.00321963
0.00254065
0.0072709
0.00504304
0.00900827
0.00787306
0.00581333
0.00444271
0.000808325
0.000352011
0.00125867
0.00248145
0.00571629
0.00874273
0.00964377
0.00685224
0.00626469
0.00353242
6.75052e-05
0.000186126
0.00127008
0.00232351
0.00609457
0.00891207
0.00924463
0.00663965
0.00570094
0.00423375
0.00109843
2.41789e-05
0.00239111
0.00570026
0.00463547
0.00910903
0.0060741
0.00686163
0.00310051
0.0010822
0.000285115
0.00244243
0.0048481
0.00886598
0.00568558
0.00634378
0.00307868
0.00420808
0.00594085
0.00500214
0.00862914
0.0060058
0.00789371
0.00889587
0.00556026
0.00839411
0.00975727
0.00994053
0.00992998
0.00978097
0.00979907
0.00992365
0.00996066
0.00158242
0.00730273
0.00903235
0.00965051
0.00983269
0.00109647
0.00678647
0.0054031
0.0084274
0.0095586
0.00086998
0.00158622
0.00330059
0.00246286
0.00714028
0.00525659
0.00838965
0.00976452
0.00251682
0.00258135
0.00367129
0.00477073
0.00239789
0.00769111
0.00557441
0.00854839
0.00939671
0.00693004
0.00713011
0.00485576
0.00451224
0.00364873
0.00239392
0.00757781
0.00525168
0.00868954
0.00922877
0.00609409
0.00565012
0.0028262
0.00456476
0.00355539
0.00246071
0.00742245
0.0059642
0.00908531
0.00885821
0.00576399
0.00694274
0.00515316
0.00351475
0.00360111
0.00597874
0.00550121
0.00858018
0.00966751
0.00891301
0.00540448
0.00525756
0.00353494
0.00316291
0.00599127
0.00388185
0.00975473
0.00862712
0.00547457
0.0077142
0.00823551
0.00636043
0.00827918
0.0084143
0.00581948
0.00685002
0.00836523
0.00985655
0.00978862
0.00980644
0.00970537
0.00508409
0.0072151
0.00656057
0.0095847
0.00236002
0.00687685
0.00768445
0.0087723
0.00202124
0.00674165
0.00847173
0.00854477
0.00584745
0.00839822
0.0095971
0.00991006
0.00808318
0.00826203
0.00749207
0.00780626
0.00937098
0.00851829
0.00574214
0.00837182
0.0097694
0.00983179
0.00968439
0.00882218
0.00681551
0.00878232
0.00926282
0.00859633
0.00622628
0.00854942
0.00935429
0.00880832
0.00611153
0.00819039
0.00887592
0.00932168
0.00871889
0.00542268
0.00869907
0.00972769
0.00841946
0.00625493
0.00715256
0.00849157
0.00902559
0.00585841
0.00829145
0.0094124
0.00972336
0.00963266
0.00853973
0.00578315
0.00834603
0.00859341
0.00459876
0.00824363
0.00841709
0.00590027
0.00646573
0.00822662
0.00957841
0.00965422
0.00896868
0.00597594
0.00892686
0.00966018
0.00625359
0.0086863
0.00965383
0.00989085
0.00744089
0.00635547
0.00852878
0.0096443
0.00986668
0.0097708
0.00988747
0.00971899
0.0096563
0.00974987
0.00991277
0.00993889
0.00993041
0.00980613
0.00986596
0.00993558
0.00992547
0.00988548
0.00995848
0.00994677
0.00993323
0.00972383
0.00982473
0.0098257
0.00976493
0.00994903
0.00993616
0.00994466
0.00987541
0.00977418
0.00969915
0.00980734
0.00980807
0.00994077
0.00989499
0.00984558
0.00977235
0.00977897
0.00991552
0.00985356
0.00960143
0.00973969
0.0098216
0.00994758
0.00977322
0.00994336
0.00977307
0.00989269
0.00986417
0.00979777
0.00988444
0.00993446
0.00293225
0.00294405
0.00316701
0.00270989
0.00182425
0.00268839
0.00390546
0.00274393
0.000562325
0.00310583
0.00144107
0.00104959
0.00264271
0.00318769
0.00223841
0.00150814
0.00288938
0.00365247
0.00361999
0.00573592
0.00306921
0.00529364
0.00521533
0.00312186
0.0042575
0.0036205
0.0014352
0.00151229
0.0065463
0.00174411
0.00126713
0.0014288
0.00289482
0.00375864
0.0028502
0.00414323
0.00148969
0.00681976
0.00298478
0.00688891
7.53445e-05
0.00255323
0.00137497
0.00238591
0.00158637
0.0021313
0.00297491
0.00146338
0.00193483
0.00272243
0.00361649
0.00145225
0.00187083
0.00285444
0.00272258
0.000101379
0.00475979
0.00119154
0.00127164
0.00287492
0.00129782
0.00135317
4.36573e-05
0.00105693
0.00144761
0.00118173
0.00118628
0.00371178
0.00147622
0.00307357
0.00161489
0.00395923
0.0011787
0.00113574
0.0029782
0.00317453
0.00324303
0.000154847
0.00308776
0.00377984
0.00114689
0.00451561
0.00110614
4.60074e-05
0.00135386
0.00056068
0.00175567
0.00140632
0.00109686
0.0015516
0.00051612
0.000263547
0.0010172
0.00137493
0.00107025
0.000252975
0.00130362
0.000170912
0.00348241
0.00316128
0.00339878
0.000192007
0.00112625
0.000722991
0.000211736
0.00132363
0.000790775
0.00139689
0.00753978
0.00215764
0.00741599
0.00135734
0.00286051
0.000765537
0.00156996
0.00736264
0.00250314
0.00788431
0.00205215
0.00617197
0.00195705
0.00451047
5.74589e-05
0.000747197
0.0021283
0.00127665
0.000874586
0.00139239
0.00460194
0.00109372
0.000269262
0.00066354
0.00132653
0.00300949
0.00142574
0.000116063
0.000757794
0.00126755
0.0053172
0.00359279
0.00109799
2.47386e-05
0.0013983
0.00329814
0.00331142
0.00110427
0.00124939
0.000573241
0.000350582
0.00133011
0.00349728
0.00173676
0.00102897
0.00119917
3.48331e-05
0.000160117
0.00495659
0.00389715
0.00140832
0.00124378
0.000867359
0.000827348
5.51233e-05
0.00369716
0.00386479
0.00632198
0.00445262
0.000716264
0.00357518
0.00400737
0.000709514
0.00104159
0.00484196
0.00564378
0.00304623
0.000555566
0.00112317
0.00420673
0.00531076
0.00323455
0.00768315
0.00948583
0.00830718
0.00373184
0.00321639
0.00285491
0.0033252
0.00786977
0.00955958
0.00812556
0.00537672
0.00266158
0.00518527
0.00277648
0.00781342
0.00953318
0.00790466
0.00451414
0.00253036
0.00454938
0.00274385
0.00062872
0.000806531
0.000790339
0.000980162
0.00251943
0.00134286
0.00106656
0.00153518
0.000677392
0.00147613
0.00150042
0.00141395
0.000331362
0.000476314
0.00124848
0.00136356
0.000291285
0.00137227
0.00057341
0.000488839
0.00249474
0.00135655
0.00222913
0.00380197
0.00267778
0.000295146
0.00170342
0.00100014
0.00309338
0.00253214
0.00299268
0.000870349
0.00347931
0.0043554
0.00117045
0.00369363
0.00112613
0.000658461
0.000226917
0.00407287
3.99849e-05
0.0033783
0.00126924
0.00325127
0.00142992
0.0034423
0.00018634
0.00135785
0.00103954
0.00378441
0.00299968
0.000158593
0.00160795
0.00106709
0.00239601
0.003759
0.00312778
0.0012613
0.00330655
0.000211713
0.00170831
0.0027262
0.00312641
0.00263395
0.00103253
0.000172764
0.00337798
0.00130528
0.00715579
0.00581307
0.0015784
0.00107578
0.0069041
0.0066961
0.00251809
0.00394961
0.00126676
0.00147153
0.00497836
0.00129803
0.00405956
0.000770239
0.000307127
0.0019392
0.00172814
0.000637439
0.00288151
0.000689864
9.6413e-05
0.00135975
0.00211869
0.000289414
0.000322668
0.000785237
0.000656633
0.000655266
0.00346773
0.00232125
0.00287122
0.0026525
0.00124832
0.00365093
0.000210576
0.00278331
0.00294115
0.00325405
0.00353648
0.00504111
0.00221109
0.0013628
0.000724901
0.00311893
0.00117152
0.00265649
0.00242318
0.000570968
0.00062126
4.22923e-05
0.000546436
0.000119826
0.000724725
0.000716781
0.00304708
0.000413256
0.00148512
0.0032489
0.00261311
0.00364109
0.00383901
0.000337616
0.00148249
0.000161951
0.00543428
0.00212877
0.00362788
0.000918804
0.000650721
0.000716396
0.000308282
0.000626295
0.00108785
0.000809534
0.00326424
0.000187416
0.00123336
0.00308457
0.00259257
0.00356592
0.00348609
0.000162969
0.00147797
0.00122617
0.00150885
0.00113615
0.00303174
0.0039302
0.0019126
0.00043813
9.50255e-05
0.000863984
6.01997e-05
0.00164275
0.00183024
0.00295035
5.47115e-05
0.00195926
0.0030012
0.00258515
0.00631322
0.00335271
4.60048e-05
0.00364977
0.00113255
0.00540411
0.0047064
0.00247414
0.00376255
0.00157252
0.00660565
0.00333453
0.00333659
0.00172077
0.000878398
0.000890925
0.00204594
0.00070298
0.00137757
0.00175937
0.00215346
0.00462742
0.00293944
0.00406634
0.00263911
0.00117532
0.00394912
0.00343823
0.00300761
0.00297442
0.00327851
0.00223953
0.00318738
0.00545514
0.0027626
0.00954713
0.00786595
0.00955575
0.00803355
0.00314375
0.00511041
0.0026034
0.00951684
0.00772674
0.00953704
0.00788719
0.00424338
0.00142619
0.000849913
0.00129871
0.000827214
0.00146795
0.000539032
0.000715115
0.00176202
0.00152978
0.00100033
0.000753984
0.0013075
0.00162089
0.0013801
0.000815451
0.00200536
0.000583626
0.000537432
0.00180218
0.000956227
0.00185558
0.000673006
0.00186156
0.000232349
0.00129753
0.00112281
0.00143902
0.00205057
0.00134202
0.00193573
8.11391e-05
0.000736298
0.000786743
0.00196849
0.000745168
0.000738326
0.00139874
0.00160571
0.000811936
3.18999e-05
0.0008217
0.000771548
7.03242e-05
0.000956155
0.000283429
0.000911485
0.00218591
0.0016784
0.00207747
0.00178907
0.00206329
0.00223729
0.000200945
0.00156222
0.000193562
0.000246766
0.000211869
0.000156338
0.000190029
0.00137312
0.000217382
0.000417316
0.00023513
0.000354829
0.00152127
0.00111522
0.00123857
0.000543229
0.00173722
0.00212515
0.00149313
0.00134633
0.00126214
0.000591496
0.000726691
0.00193648
0.000721116
0.00144547
0.00186698
0.00117806
0.00147033
0.00125853
0.00152682
0.000220928
0.00142526
0.000786023
0.000669814
0.000676975
0.00129323
0.000873226
0.00117829
0.000851653
0.00137903
0.000154962
0.000818862
0.000876255
0.000152389
0.00164029
0.00141491
0.000195228
0.00140684
0.000178733
0.00114447
0.00163082
0.000244123
0.00170169
0.000517423
0.000184908
0.000303227
0.000284693
0.00111245
0.00042603
0.000557848
0.000382796
0.000552915
4.90102e-05
3.94774e-05
0.000419546
0.000426985
0.00130098
9.35964e-05
0.000621048
0.000552334
0.000603465
0.000525685
0.00152165
0.00159806
0.000248978
0.00128337
0.00179924
0.00133295
0.00187441
0.00166404
0.000486451
0.0015712
0.00114295
0.000241135
0.00155289
6.55729e-05
0.000320834
0.000452247
0.000170321
0.00177073
0.0016672
0.000291403
0.000381769
4.04778e-05
0.000193985
0.000481061
0.000657877
0.00126288
4.92167e-05
0.00111258
0.000306366
0.000452522
0.00135155
0.00146442
0.000678669
0.00141562
0.000347386
0.000412102
0.000420309
0.00103071
0.00158903
0.000676354
0.00160144
0.000745545
0.000507707
0.000300401
8.7117e-05
0.00050818
0.000542339
2.99258e-05
0.000318806
0.00106677
0.000601637
0.000887751
0.000675699
0.000717007
0.000307367
0.000543087
0.000128979
0.000171289
0.000310199
0.00048499
0.000667155
0.000575008
0.000177356
0.000238526
0.00137905
0.00152703
0.000341085
0.00144387
0.000423899
0.000231071
0.000230832
0.00103517
0.00151492
0.000428215
0.0014796
0.00032929
0.000263833
7.17482e-05
0.000481425
0.000727702
8.76177e-05
0.0006733
0.000278279
6.85274e-05
0.0012437
0.000828552
0.000278862
0.00077615
0.000315962
6.69753e-05
0.000164166
9.24076e-05
0.000274737
6.30041e-05
0.000301743
0.000271429
0.00026738
0.00147665
0.000298071
0.000652144
0.000305748
0.00139479
0.000846148
0.000218998
0.00136739
0.0014046
0.000330779
0.000316226
0.00124262
0.00145726
0.000216873
0.00184954
0.0011484
0.000381119
0.000297916
0.00112499
0.00181119
0.000219238
0.000985772
0.001064
0.000678162
0.000805756
0.000683129
0.00103461
0.000856089
0.00067625
0.00555043
0.00114682
0.00563228
0.00106895
0.00637057
0.0015516
0.00622256
0.00258487
0.00166675
0.00668714
0.00112318
0.00258506
0.00722633
0.00169583
0.006638
0.00728371
0.00117028
0.00106475
0.000512627
0.00123147
0.00139468
0.00059934
0.00105314
0.000752432
0.000535534
0.00014789
0.00136568
0.000615374
0.000461249
0.000628019
6.26724e-05
0.000503446
0.000605426
0.0004177
0.000190392
0.00251625
0.00289818
0.000150406
0.000927078
0.000278356
0.000164534
0.000759591
0.00333844
0.00146009
0.0001784
0.000678992
0.000352017
0.00237766
0.000344469
0.00117177
0.0025355
0.000775895
7.95369e-05
7.37461e-05
0.00134849
0.000631537
0.000646166
0.000755399
0.000427173
0.000738554
7.08702e-05
0.00216431
0.00119811
0.000759939
0.000789634
0.00081145
0.00038442
0.00100834
0.000735383
2.36868e-05
0.000793715
0.00133631
0.000802244
0.00147929
0.00213391
0.000744378
0.00241237
0.000661079
0.00238359
0.000782769
0.00236245
0.00130926
0.00106345
0.000329859
0.00235763
0.000824654
0.000740884
0.000310087
0.000439914
0.00043457
0.000662693
0.000732335
0.000588798
8.10667e-05
0.000164643
0.000834861
0.000113613
0.000675703
0.000741614
0.000573128
0.000660477
0.000170201
0.000657396
0.000131738
0.00108216
0.000660685
0.000782772
0.00142818
0.00161267
0.00104059
0.000700963
0.000963857
0.00148185
0.00053962
0.000276114
0.000675121
0.000827117
0.000210869
0.000536439
0.000307487
0.00047914
0.000618299
0.00022432
0.000697485
0.000599286
0.00135327
0.00140436
0.00126153
0.000337627
0.00130866
0.00208952
0.000107279
0.000148827
0.00143138
6.01353e-05
0.00164177
0.00271115
0.00278489
0.000326545
0.00013645
0.00159028
6.02993e-05
0.00127155
0.0026351
0.00095558
0.000684381
0.000966856
0.00130656
0.00171505
0.000936328
0.00162839
0.000683083
0.000777079
0.000647527
0.000832158
0.00104211
0.00171693
0.00121099
0.00156448
0.00220925
0.000412084
0.0014335
0.000840319
0.00131654
0.00216884
0.000250604
0.00123447
0.000779493
0.00122648
0.00218938
0.00080915
0.00139422
0.00151719
0.00161143
0.00042088
0.000787055
0.00100154
0.00115499
0.00175318
0.00611126
0.00350125
0.00642921
0.00584513
0.00341253
0.00121987
0.00354325
0.00240526
0.00494277
0.00528641
0.0015693
0.00281481
0.00286007
0.00748215
0.00851773
0.00777643
0.00415592
0.00283223
0.00552301
0.00375451
0.00648436
0.00940391
0.00694175
0.0023747
0.00414686
0.00494458
0.00333054
0.00810218
0.00947355
0.00803267
0.00517963
0.00287072
0.00280721
0.0028545
0.00706146
0.00941844
0.00743961
0.00319998
0.00262704
0.0038674
0.00367533
0.0077679
0.00919173
0.00747787
0.00421081
0.00263093
0.00264959
0.00260709
0.00692647
0.0091724
0.00647945
0.00429505
0.0031225
0.00241076
0.00445814
0.000391101
0.000583046
0.000651986
0.000649301
0.00483465
0.00345328
0.00278923
0.00332721
0.00465264
0.00390903
0.00337211
0.00315761
0.00116228
0.00583925
0.00129163
0.0034281
0.00152594
0.00305596
0.000563939
0.00141693
0.00137962
0.000249073
0.0013668
6.56897e-05
0.00124728
0.00459051
0.00292817
0.00264111
0.00283129
0.00468789
0.00364911
0.00325857
0.00146953
0.000690983
0.000391788
0.000669817
0.00171321
0.00140044
0.0011474
0.000254142
0.00131588
0.0013966
0.00066811
0.00137504
0.00105526
0.000569658
0.0010953
0.0030798
0.00322205
0.00317394
0.000143091
0.00349881
0.00313926
0.00150581
0.000406581
0.000247735
0.000738914
0.00136277
0.00138379
0.000741594
0.00123509
0.00125998
0.00138673
0.000471899
0.00181597
0.0014888
0.00131
0.00267723
0.00779984
0.00518399
0.00466323
0.00114775
0.00590485
0.00219835
0.00251652
0.00346625
0.00276181
0.0001697
0.00104304
0.00114105
0.000253102
0.000918362
4.64733e-05
0.000811337
0.000796213
0.000499471
0.000549485
0.00018311
0.000535477
0.000402688
0.000694561
0.000348193
0.00147804
0.000728128
0.000385744
0.00251444
0.00927359
0.00705244
0.003943
0.00307737
0.0090373
0.00708799
0.00148647
0.00220769
0.000388521
0.00074023
0.00162063
0.00102016
0.000275374
0.000226861
0.000292157
0.000508068
8.0165e-05
0.00100606
0.00346343
0.00327667
0.00324656
0.00443883
0.00314375
0.00289949
7.09303e-05
0.000901761
0.000732211
0.000630635
0.00128035
0.000816078
0.00122049
0.000212904
0.000514705
0.000581331
0.000189673
0.000437954
0.000399234
0.00020547
0.00353579
0.00285654
0.00338296
0.00222656
0.00321292
0.00256065
0.000697252
0.000276963
0.00205248
0.000756517
0.000702447
0.00112264
0.000465034
0.000307903
7.03296e-05
0.000439116
0.000608837
0.000374045
6.44535e-05
0.00127972
0.00538356
0.00247827
0.00276214
0.00364214
0.00565458
0.00220434
0.000209764
0.00117861
0.00269557
0.00133649
0.00130894
0.00111717
0.00159375
0.00106792
0.000903556
0.000270162
0.00646738
0.00361295
0.00628743
0.00336638
0.00210279
0.00716868
0.00122676
0.00417749
0.00300662
0.00266485
0.0035509
0.00538101
0.00049845
0.000409356
0.00133409
0.000626517
0.00134267
0.00163673
0.00132369
0.00412489
0.0052399
0.0036733
0.0031582
0.00561173
0.00300757
0.00528505
0.000707203
0.00110943
0.00124484
0.00153241
0.00114216
0.00329843
0.00320601
0.00365824
0.00349807
0.00342223
0.0036109
0.00257938
0.0030475
0.00433253
0.0033241
0.00387111
0.00318591
0.00656329
0.00719692
0.00857531
0.00846945
0.00320452
0.00271608
0.00317847
0.00901716
0.00819391
0.00900614
0.00806465
0.00322147
0.00286687
0.00281475
0.00948728
0.00803164
0.00940754
0.00802111
0.00273304
0.00271564
0.00360712
0.00943308
0.00779319
0.00901166
0.00764484
0.00304424
0.00361926
0.00387928
0.00949527
0.00759727
0.00940481
0.00779434
0.00406077
0.00359331
0.00276558
0.00880252
0.00793235
0.00936768
0.00744089
0.00330716
0.00297492
0.00276132
0.00779981
0.00937375
0.00736901
0.000653737
0.00151881
0.00066613
0.0013883
0.00118091
0.00123553
0.00242376
0.00149347
0.0014516
0.00227143
0.00116806
0.00153571
0.00185132
0.00030824
0.00142527
0.00133644
0.000291265
0.000597518
0.000297048
0.000290451
0.0020735
0.00580345
0.00762171
0.000517655
0.00031141
0.00139273
0.000291381
0.00130915
0.000297167
0.000583706
0.000283139
0.000318661
0.00396343
0.00152138
0.000571845
0.00235931
0.000706935
0.000302531
0.00800831
0.00204358
0.00578535
0.00165778
0.00744796
0.00227361
0.00699695
0.00788524
0.00211391
0.00166369
0.00506836
0.00255758
0.00485243
0.00779179
0.000568775
0.000148361
0.000422423
0.000821395
0.000127498
0.000641297
0.000712007
0.00153441
0.00161791
0.00185093
0.00278089
0.000409644
0.000238297
0.00114347
0.0013498
0.0014513
0.00141982
0.000269215
0.000410697
0.00190532
0.00229419
0.00125642
0.000319385
0.00128184
0.000269185
0.00225702
0.000526688
0.00029149
0.0016945
0.00140334
0.00280328
0.000539689
0.00270275
0.000472324
0.00166904
0.00178472
0.00161131
0.00107835
0.00196049
0.00152318
0.000715401
0.000894171
0.00112705
0.000281198
0.00082988
0.000836018
0.000900417
0.000819184
0.00107126
0.000681027
0.000326271
0.000736252
0.00034473
0.00100941
2.45938e-05
0.00121923
0.00103509
0.00121981
0.00151134
0.000756967
0.00111704
0.000168174
0.000122437
0.000130433
0.000540228
0.00054598
0.00150094
0.00114408
0.00119265
0.00171275
0.000405812
0.000556354
0.000129727
0.000173586
0.00158638
0.00131172
0.00138982
0.000288526
0.00109958
0.000659146
0.000667374
0.000714123
0.000167539
0.000213324
0.000449533
0.000296245
0.000331747
0.000573372
0.00113234
0.00187666
0.000667832
0.00154973
0.000294744
0.00116619
0.000141309
0.000137107
0.000542523
0.000167862
0.000656364
0.000562079
0.0016906
0.00202316
0.0013485
0.00171969
0.00114522
0.000427391
0.000487317
0.000446138
0.000651179
0.000821639
0.000455196
0.00047609
0.00145143
0.00109025
0.0010507
0.00159309
0.000832342
0.00102471
0.00019545
0.000186123
0.000339497
2.36805e-05
0.000366554
0.000300875
0.000113668
0.000249991
0.00150198
0.000974507
0.00121075
0.00142389
0.00137946
0.000377502
4.51991e-05
0.00038287
3.13511e-05
0.000327937
0.000303907
0.000217125
0.000132561
0.000104078
0.000905084
0.000348478
0.000528435
0.000209323
0.000875473
0.00057923
0.000227101
0.00171807
0.00105737
0.000610282
0.000481409
0.00151206
0.00110544
0.000222544
0.00090325
0.000640209
0.000217204
0.000250792
0.000672125
0.000895028
0.000222203
0.000291313
0.0013155
0.000287579
0.00131449
0.00028701
0.000628122
0.000290179
0.000308409
0.000497517
0.000859768
0.000174635
0.000581362
0.000329189
0.000170567
0.000292309
0.000288231
0.00141113
0.00136889
0.000640086
0.000282038
0.000290685
0.000234894
0.00130279
0.000547902
0.00254323
0.000288052
0.00133859
0.000408148
0.000366248
0.000514624
0.000181959
0.000797881
0.000337787
0.000749165
0.000244528
0.00853505
0.00180629
0.00499277
0.00261436
0.00804227
0.00231339
0.00774543
0.00777439
0.00113522
0.00749663
0.00171273
0.00704537
0.00237835
0.00690277
0.00822215
0.00260043
0.00137175
0.00610528
0.0022156
0.00796006
0.0056417
0.000557668
0.000429369
6.75409e-05
0.000121575
0.000185732
0.000588217
0.000683946
0.000414849
0.000162161
0.000443537
0.000394186
0.00169094
0.00172376
0.000831452
0.00210437
0.000180935
0.000223112
0.000671598
0.000728619
0.000743715
0.000524937
0.000173582
0.000762884
0.00174037
0.00152071
0.00281216
0.000874632
0.000755618
0.000769293
0.00155099
0.00374796
0.0012463
0.00119963
0.000748943
0.00123114
2.16016e-05
0.000458783
0.000855104
0.000827463
0.000767926
0.00123943
0.00104235
0.00111193
0.000726509
0.00127613
0.00152287
0.000860117
0.00194211
0.00103555
0.00266707
0.0015222
0.00119585
0.0014491
0.00148625
0.00189957
0.000719409
0.00210671
0.00257024
0.000841424
0.00125566
0.00168311
0.0020522
0.00103364
0.00241061
8.27203e-05
0.00145215
0.00132037
0.00078611
0.00146389
0.00105672
0.00172603
0.000673752
0.00134386
0.000985655
0.00144954
0.00100881
0.00198171
0.000282551
0.000432525
0.000543826
0.0010779
0.000893186
0.000988798
0.000824941
0.00072552
0.000770119
0.000719605
0.000315308
0.00014492
0.000292021
0.000560762
0.000119364
0.000578544
0.000746633
0.0010896
0.00153627
0.00101424
0.000677362
0.00129658
0.000622865
0.00159458
0.00153796
0.00127896
0.00119407
0.00114127
0.00136818
0.00055387
0.000714631
0.00101823
0.00163692
0.000896796
0.000808125
0.00147532
0.000554903
0.000823384
0.000840022
0.00106541
0.00016741
0.000992144
0.00118722
2.19956e-05
0.000140007
0.000725685
6.93923e-05
0.000183469
0.00049293
0.000122068
0.000189358
0.000420034
0.000268183
0.000698428
0.000655281
0.00107638
0.00150422
0.000941606
0.000722498
0.00136324
0.000720337
0.00104958
0.00100064
0.00156137
0.00122747
0.000533977
0.00144323
0.000668255
0.000773671
0.000349868
0.00106389
0.00151521
0.000864772
0.000709004
0.00037995
2.56297e-05
0.000172869
0.000193022
0.000441582
0.000598822
0.000191693
0.00073992
0.00138041
0.00332872
0.0013829
0.00120912
0.00152451
0.00112379
0.00067432
0.000723296
0.000996185
0.00152058
0.000849337
0.00033601
0.00144243
0.00264155
0.000442618
0.000399212
0.00116381
6.01665e-05
0.00141072
0.00108844
0.000693022
0.000690322
0.000685094
0.000920985
0.000656983
0.000654871
0.000159692
0.000408365
0.000236316
6.8264e-05
0.000419156
0.000531947
0.000458154
5.90603e-05
0.00195485
0.0011964
0.00379203
0.00490779
0.00142442
0.00181504
0.00492918
0.00215527
0.0012275
0.00565284
0.00547428
0.0015121
0.0023157
0.00525771
0.00196952
0.00167411
0.00409042
0.00707441
0.00127593
0.00212347
0.00753937
0.00116913
0.00418504
0.00180495
0.00159296
0.000388919
0.00204576
0.000659856
0.00131471
0.0016483
0.00122635
0.000488153
0.000482247
0.000578439
0.000136453
0.00185381
0.000942702
0.000585993
0.00133835
7.1371e-05
0.00135383
0.00194624
0.00204238
0.00236564
0.00322127
0.00162259
0.00154968
0.00433759
0.00170649
0.00145718
0.00551155
0.00423246
0.00180114
0.00112584
0.00518986
0.000521976
0.000475116
0.000566242
6.68675e-05
0.000820254
0.000757497
0.000860544
0.000851234
0.00189238
0.00168974
0.00158655
0.006576
0.00385707
0.00197956
0.00107577
0.00725382
0.000132757
0.000577403
0.000797387
0.000130985
0.000845181
0.000722614
8.29652e-05
0.000344764
0.000237824
0.000337153
0.000746432
0.000426604
0.000692137
0.000751172
0.000686779
0.000720446
0.000580853
0.000600698
0.000633282
0.000679812
0.000771645
0.000299394
0.000696906
0.000659524
0.000657046
0.000854667
0.000704795
0.000640646
0.000931487
0.00062449
0.000166162
4.95391e-05
0.000611089
0.000882453
0.000860743
0.000844864
0.000838879
0.000879005
0.000883422
0.000214796
0.000682604
3.2185e-05
0.000895001
0.000601625
0.000906129
0.000825522
0.000881869
0.000868016
0.000833871
0.000624596
0.000447046
0.000536141
0.000640445
0.000848228
0.000472134
0.000818367
0.000757717
0.000434449
0.000499293
0.000736682
0.000774037
0.000418473
0.000830807
0.000554452
0.000915136
0.000399998
0.000747597
0.000868105
0.000525745
0.00140277
0.00119189
0.000648423
0.00118574
0.00122809
0.00115803
0.00184112
0.00047796
0.000955739
0.000785661
0.000831737
0.00118609
0.0013072
0.0013687
0.00161797
0.00123471
0.00144159
0.00335784
0.00407284
0.00397696
0.00363766
0.000693178
0.00145337
0.00116478
0.00187261
0.00126327
0.00123917
0.00168145
0.00158022
0.00115743
0.00071013
0.000450943
0.000617987
0.000707649
0.00160899
0.00112959
0.000428539
0.000542083
0.000761289
0.00170627
0.00158203
0.00127648
0.000686763
0.000272802
0.000666131
0.00148518
0.00134476
0.00077994
0.000487952
9.08185e-05
0.00028869
0.0002869
0.000678618
0.00069124
0.00025082
0.000100019
0.000287499
0.000668613
0.00234324
0.00132781
0.000822024
0.00117729
0.00149574
0.000472372
0.000396817
0.00169315
0.00163129
0.00110574
0.00138146
0.000365965
0.000376341
0.00159126
0.00225242
0.00226413
0.0014374
0.000329302
0.000307649
0.000745535
0.000320287
0.00138937
0.00148279
0.00120239
0.00148902
0.00101778
0.00044175
0.000294826
0.000704797
0.000744225
0.00147838
0.000191371
0.000689965
0.000963303
0.000863412
0.000688048
0.000307062
0.000323508
0.000614626
0.000692467
0.000678889
0.000818127
0.00155524
0.00119309
0.00149244
0.00113707
0.00143041
0.000895094
0.00101429
0.000357331
0.00117207
0.000765284
0.00155644
0.0014037
0.00089905
0.0013574
0.000505161
0.00122167
0.00212982
0.000649834
0.00116906
0.00127991
0.00136589
0.000509895
0.00143368
0.00106478
0.00126081
0.00272174
0.0013363
0.00109147
0.000372815
0.00168556
0.00151329
0.000507492
0.00108788
0.00127226
0.000145249
0.00013864
0.000214859
0.000416195
0.000806373
0.00144081
0.00281269
0.00102003
0.001259
0.00108328
0.000730004
0.000230591
0.000853669
0.000905426
0.000878804
0.000120269
0.000985179
8.75516e-05
0.000859557
0.000839206
0.000767096
0.000357019
0.000134696
0.000408975
0.000112032
0.000672911
0.000956694
0.000812829
0.00082211
0.000852208
0.000849244
0.000102709
0.000512033
0.00116169
0.000448041
0.000399342
0.000550352
0.000605705
0.000448825
0.000340764
0.000708979
0.00028807
0.000293206
0.000385348
0.000580195
0.000562424
0.000409227
0.000384559
3.72062e-05
0.000655691
0.000690338
0.000694287
0.000297685
0.00129047
0.000450678
0.000100825
0.000285866
0.0010676
0.000583843
0.000765934
0.000608846
0.000219477
0.000444715
0.000327334
0.000329026
0.000596565
0.000175365
0.000262971
0.000638452
0.00122282
0.000842736
0.000311446
0.000467897
0.000599218
0.00083337
0.000483729
0.00137261
0.000951152
0.00102384
0.00107234
0.000520827
0.000290405
0.000733638
0.000729286
0.00116321
0.00138074
0.000592948
0.000428395
0.000657702
0.00136339
0.00104952
0.000807302
0.00166988
0.00111836
0.000847123
0.00065948
0.00155746
0.00187144
0.000257092
0.000122884
2.87368e-05
0.000195008
0.000250952
0.000597034
0.000643815
0.000422655
0.000600338
0.000273246
0.000220042
0.000334704
0.000480881
0.000172451
0.000717616
0.000684108
0.00061251
0.000985186
0.0012277
0.00062569
0.00146561
0.00116113
0.00107545
0.00137233
0.000173008
0.000293222
0.000651973
0.000761798
0.000747353
0.000849068
0.000813639
0.000268476
0.000666299
0.00078138
0.000852643
0.00204305
0.000904812
0.00125294
0.0011331
0.00146045
0.00250474
0.00165373
0.00123303
0.00207628
0.00471929
0.000273412
0.00029843
0.00073772
0.000705263
0.000540787
6.30091e-05
0.000766835
0.000181343
0.000457182
0.000476085
0.000272217
0.000227349
0.000630116
0.000732932
0.000472455
0.000737873
0.000214397
0.000222591
0.000435461
0.000462528
0.000425682
0.000218946