/*--------------------------------*- C++ -*----------------------------------*\
  =========                 |
  \\      /  F ield         | OpenFOAM: The Open Source CFD Toolbox
   \\    /   O peration     | Website:  https://openfoam.org
    \\  /    A nd           | Version:  10
     \\/     M anipulation  |
\*---------------------------------------------------------------------------*/
FoamFile
{
    format      ascii;
    class       volScalarField;
    location    "0.05";
    object      omega;
}
// * * * * * * * * * * * * * * * * * * * * * * * * * * * * * * * * * * * * * //

dimensions      [0 0 -1 0 0 0 0];

internalField   nonuniform List<scalar> 
114940
(
11.1651
10.025
11.2626
10.0888
10.2771
9.91288
10.0004
9.8603
9.84202
9.95852
9.85158
9.80144
9.80589
9.98227
9.93372
9.99551
9.78498
9.77275
9.78575
9.80054
10.0213
9.87628
10.0143
9.78048
9.79608
9.80349
10.0173
9.90162
9.89088
9.93495
9.89516
9.93643
9.91957
9.94818
9.76587
12.8302
12.9656
10.6511
10.0241
9.78469
12.0314
11.4449
11.7768
10.1919
9.90985
12.9075
10.428
17.1224
12.3861
10.2871
12.4651
10.2265
10.2178
11.2927
17.3133
12.3267
11.8241
16.0859
11.4361
10.1417
10.2281
10.8043
16.4896
12.0633
11.9117
15.5707
11.0216
10.5909
10.4291
20.0887
12.1535
10.3434
12.2681
15.6652
13.9845
17.1057
11.9863
10.3305
10.1585
10.1477
10.1233
10.0233
10.067
9.94148
10.1155
9.84135
9.86386
9.98726
9.86677
9.84662
10.0473
9.89285
9.93616
10.0233
9.92865
10.0583
9.90497
9.7878
27.9193
13.3584
11.1351
10.2074
9.95521
33.4358
32.1193
11.3228
17.8756
12.279
10.3185
30.3397
33.1311
11.2249
15.1005
18.7479
12.3079
11.6305
11.6446
10.7329
11.0794
14.552
18.9449
12.0087
16.8865
14.3512
10.8256
10.2408
10.2472
10.5176
14.6141
19.8749
10.9529
11.0849
16.1636
15.2827
10.8663
10.3273
10.4191
11.5759
15.5468
12.0179
11.1429
15.8938
15.1909
11.303
14.0305
14.4231
12.3852
17.3791
11.7612
11.6411
16.3312
13.4623
12.3122
13.2127
10.9743
13.4133
11.4227
10.2394
11.8861
16.2516
12.3228
11.8714
17.9212
12.0086
10.3827
12.1634
15.6503
17.0978
12.1791
10.3666
9.98783
9.94478
10.23
9.95904
9.86471
36.1858
12.9101
18.2777
11.8982
10.2609
229.998
61.215
34.405
20.5373
19.1465
11.8113
79.9586
44.554
63.0652
34.4386
15.237
17.2926
18.8666
11.6754
38.6415
27.4197
79.466
72.8524
39.7287
32.2167
18.6163
20.4313
11.2618
13.4302
17.9038
31.1383
74.1194
75.4709
36.1914
16.1342
20.9586
11.6873
10.4724
16.5043
16.7823
30.238
78.963
83.7154
34.7886
17.0403
16.9975
11.7054
10.789
16.6359
17.9383
40.1144
32.0071
33.6936
42.2361
15.5716
23.7609
11.0695
15.3026
13.6065
18.8622
33.3111
36.6277
16.5274
21.3101
11.3616
16.1521
15.3093
19.6617
50.7187
14.3486
24.1616
11.9424
15.8818
13.9201
12.2903
17.9685
12.5127
10.0123
9.80244
9.81121
9.98636
10.1072
9.97446
9.87488
68.7387
11.1981
20.3996
11.9017
10.2616
37.8318
38.3865
14.5805
20.7693
11.8152
72.5718
42.9287
13.8037
19.5231
11.6639
32.3083
30.8257
486.844
31.6342
42.7486
13.8181
21.6117
11.1477
12.6216
17.8059
22.8836
113.715
213.534
79.1419
44.1907
18.4133
11.6929
10.5913
14.8569
16.2869
29.3209
571.668
327.581
77.8595
49.5129
16.9543
11.4169
10.8013
15.3647
18.1487
24.5074
87.3564
778.651
43.3499
18.5511
24.5885
11.018
16.9947
14.6729
34.2842
89.4474
215.413
52.3018
24.9127
11.4465
18.5057
16.0741
34.0221
25.0984
17.9477
25.1271
11.9149
17.3143
12.6496
11.0796
19.1936
12.4031
10.0127
9.79668
9.8068
9.98504
9.99282
9.82941
9.77648
57.9316
13.7524
11.1198
10.2107
9.94952
95.9207
14.8818
19.3691
12.2709
10.3447
100.684
63.1018
30.8309
43.631
14.0661
20.2772
12.3073
10.0449
42.0565
40.5296
27.283
21.5431
45.8465
13.0148
18.7209
12.0454
10.5917
14.4895
14.0396
21.803
22.534
28.5992
46.1288
13.2334
20.4044
11.7139
10.8133
16.9099
18.4272
36.3621
22.4644
29.023
44.4617
13.6254
17.2869
11.077
11.4517
18.1379
14.579
20.7622
28.7475
28.5694
17.6786
19.4084
12.1148
10.1497
11.3087
19.6295
20.282
28.6508
33.5507
17.9553
32.586
10.0598
11.8292
19.4101
13.0174
12.4728
18.1096
12.668
12.2892
18.0187
15.4392
12.3585
9.91928
9.97899
9.95579
10.1312
18.3904
14.0036
16.2517
10.2867
49.0056
14.7144
11.6236
11.604
58.9352
15.0046
11.6346
11.5657
17.5843
12.3519
10.2863
9.84093
12.2172
11.9186
13.263
12.7018
10.4641
11.6034
18.0683
12.3692
10.0385
9.95048
10.2124
11.4739
14.8778
11.2244
10.5967
11.5053
16.3207
12.055
10.6587
11.5582
16.8965
12.1006
11.0918
10.5304
11.333
19.5503
11.7032
10.0945
12.2701
16.4083
14.1167
11.5869
10.9147
18.2537
12.6472
10.5754
10.1062
10.206
12.017
18.11
11.9444
11.5062
23.8541
12.7441
12.2782
17.7006
16.4125
12.6775
10.2426
10.1545
10.9537
17.6803
11.3146
10.1946
17.0415
11.7113
10.1679
9.87035
13.3559
16.1966
12.0356
10.2108
9.88769
10.0119
9.8756
10.0349
10.1071
10.0326
9.83251
9.80001
9.80733
9.96549
9.90319
9.80797
9.81976
9.86018
9.77494
9.79066
9.80455
10.0612
9.96122
9.95848
10.0087
9.78632
9.80105
9.79268
9.87745
10.0205
10.1355
9.94999
9.95338
9.7968
9.85621
9.91864
10.0343
9.98394
9.82838
9.9073
10.2454
10.0469
9.94901
9.78528
9.98473
9.79022
9.99328
9.86786
9.87659
9.95332
9.87937
9.81195
35.1347
35.0697
32.3182
37.6024
54.6024
39.309
25.6601
38.1795
136.804
32.8304
68.785
92.2572
40.4924
32.1232
48.2158
65.4069
33.8627
27.2208
27.5872
17.7938
34.1185
19.3798
19.4603
32.0888
23.9107
27.8322
63.4255
63.4752
15.0275
55.6367
70.8712
64.2356
33.6065
26.6557
34.4601
24.0802
64.6032
14.4055
32.9389
14.3994
465.309
39.262
66.3092
42.3895
61.5962
44.0221
33.8151
66.6078
51.8971
35.2502
28.3088
63.9829
53.5215
35.7835
37.2115
328.199
19.7242
85.3635
76.0771
36.9988
76.4781
75.2554
530.213
86.8599
70.7215
85.851
76.5138
26.8546
69.5576
32.7545
58.7627
25.0724
77.4777
90.3507
34.578
33.6872
31.7871
386.188
33.2911
26.9798
89.8223
22.4931
93.1972
502.043
74.1179
149.552
57.7487
74.9072
94.2979
60.9201
160.443
256.187
93.0499
76.9764
96.2329
266.267
74.5092
314.729
28.5826
34.5164
29.7272
324.308
85.7969
127.32
301.68
66.8029
109.47
68.8093
13.0101
44.3187
13.2279
65.5439
34.1392
112.179
61.628
13.3236
39.0656
12.5259
46.3487
15.9613
49.6646
22.0418
603.399
121.186
44.3148
72.8904
108.578
68.9421
22.562
92.3988
234.729
138.568
83.9843
33.2859
70.6754
394.636
124.555
79.7026
19.3242
28.2218
83.8557
1170.27
73.319
30.3862
31.8288
92.8962
72.301
151.506
212.962
79.9764
28.4684
58.7608
90.9114
80.5404
1045.75
342.745
20.5222
25.6618
75.5302
78.0383
110.114
114.611
440.066
27.7036
25.7959
16.0202
22.4226
115.372
27.2903
25.1289
116.042
87.5682
20.5561
16.7451
33.1666
139.452
87.7964
24.066
19.3659
31.3205
12.9163
10.3411
11.8223
27.31
31.7664
35.7459
31.1282
12.4636
10.2463
12.0355
18.9877
38.3442
19.6567
37.018
12.5347
10.2607
12.3787
22.6524
40.8057
22.4125
37.4485
126.292
104.998
108.474
94.1342
40.1578
68.6092
92.563
63.6239
130.699
65.2087
67.3358
69.7856
208.448
164.895
75.8649
76.9562
229.771
71.0321
149.089
154.586
41.2209
78.5079
43.9017
26.8735
38.5295
233.908
57.4105
105.196
33.0602
43.0676
34.8048
107.384
28.9165
22.734
88.9687
27.0983
93.1109
135.231
291.962
25.4697
877.855
29.9477
84.6744
30.8212
69.2187
29.1339
306.543
69.6456
99.2029
27.1638
33.2382
342.429
62.1204
84.7351
42.4723
26.8723
32.3149
78.4835
30.4299
301.726
62.2352
38.2125
32.6826
40.2358
92.3818
352.207
29.7776
73.3192
13.9419
17.297
60.7714
93.9833
14.4557
15.0546
41.588
26.0069
72.5381
66.7741
19.914
76.177
24.3865
121.779
211.549
53.333
55.6752
172.344
34.6062
123.376
377.355
69.4697
46.9397
257.912
202.651
114.241
133.524
134.309
28.8534
43.8807
37.9798
36.7535
85.9906
27.3929
314.277
37.1022
34.658
31.0942
29.356
20.9015
47.786
74.2636
122.418
33.7487
88.9317
38.5504
42.3903
166.117
132.765
546.835
188.084
345.959
123.81
133.056
33.2732
190.265
65.2287
36.2811
37.6571
28.2256
25.9639
219.935
68.1405
401.068
18.3186
47.8139
27.7014
111.629
140.543
121.951
234.587
154.52
86.4672
126.798
30.8444
301.896
77.8562
37.9081
37.9737
29.0414
28.6001
358.647
68.9677
75.1062
68.1588
84.075
33.4032
26.323
52.4638
181.778
437.122
106.068
376.873
58.7803
55.9744
34.3605
449.097
53.907
38.2163
38.1901
16.0844
29.8878
584.281
27.4128
80.8932
18.6324
21.1877
42.2771
27.2783
58.5852
15.0243
33.1698
29.7084
58.3223
99.9426
103.575
49.5943
122.469
68.4783
57.5872
47.1639
22.7267
34.9154
24.7923
39.4646
85.4693
26.4101
29.4725
34.8642
34.3637
31.5984
48.3212
31.3143
18.7718
36.8545
10.2385
12.4511
10.2351
12.1808
32.1398
19.9279
39.1178
10.2611
12.6779
10.2656
12.4109
24.0377
65.7724
103.856
72.9474
105.914
63.9208
145.924
119.674
55.3329
65.9223
96.1312
117.294
71.9602
58.3018
68.5376
105.009
49.1051
136.14
141.021
52.1326
91.5593
51.0431
122.277
52.6645
242.172
72.7947
88.9754
64.8114
45.6571
73.6764
50.1881
444.143
117.279
108.908
51.0515
115.514
115.003
72.069
59.8744
110.826
617.035
106.12
112.885
463.488
92.2601
219.066
96.7601
45.6561
55.2531
47.183
53.3839
47.177
43.0794
306.526
59.5292
277.48
229.976
293.865
308.118
311.404
68.1317
254.648
171.705
257.812
194.209
60.7852
80.9141
78.1438
137.919
58.8671
46.9768
66.8595
68.3078
71.7604
129.081
113.251
51.2447
114.061
63.4591
52.5809
80.3829
67.948
76.7146
63.9075
314.437
70.885
118.204
124.856
126.673
79.3554
106.666
75.2781
114.131
66.6141
402.336
109.277
106.475
273.297
61.5234
68.9854
345.033
69.9245
202.946
87.0808
60.6742
256.858
58.0323
158.121
201.438
209.492
223.612
81.4735
170.136
143.388
185.055
147.128
523.839
881.077
171.586
172.623
71.4354
464.987
130.876
141.978
135.803
152.205
61.8379
59.495
281.568
73.3762
52.3843
71.8569
50.4864
57.4146
172.095
63.0246
89.1958
257.033
63.8272
425.496
154.398
180.436
383.935
55.644
59.8333
258.099
208.067
925.369
345.745
169.354
127.545
74.5365
436.328
84.3929
247.108
169.247
78.006
66.7752
134.207
69.2723
202.949
192.577
178.895
97.595
61.9407
135.564
61.2916
122.172
169.138
220.202
496.192
150.724
149.728
707.81
210.168
87.9556
132.816
100.175
126.158
124.928
219.762
156.518
303.527
193.533
215.793
168.528
123.74
143.487
196.389
260.621
76.5638
63.9415
239.279
66.9229
203.534
189.35
267.046
100.206
64.9728
174.102
66.4537
237.803
185.733
433.173
174.645
118.594
375.815
130.611
247.862
428.304
78.1644
107.376
248.704
117.65
228.11
420.931
423.651
342.15
248.85
422.692
219.025
251.175
261.575
64.2052
217.715
137.095
264.25
68.9525
111.536
291.858
69.0112
71.765
249.739
246.993
81.3216
66.3905
294.373
51.9732
87.6028
200.761
253.941
90.1758
53.8327
292.335
101.922
98.3068
119.812
108.758
118.321
101.134
102.559
118.883
17.3866
85.9373
17.9106
94.3769
15.9501
69.491
16.3446
38.0868
64.6818
15.1285
89.3843
37.5074
13.6794
63.4786
15.2482
13.6908
85.263
98.2738
160.704
81.5274
67.3634
138.807
99.8788
109.612
153.527
330.752
68.3169
126.897
149.882
132.077
507.034
144.389
127.209
157.257
288.92
39.0002
33.6215
331.952
94.6375
217.366
312.527
111.693
29.4043
64.143
281.4
128.796
154.319
41.5148
196.806
76.9812
38.9909
114.889
425.902
475.158
68.6754
132.666
139.802
124.478
164.524
112.845
562.918
45.1376
80.2396
133.004
106.609
130.947
232.511
96.5201
136.49
1385.38
106.977
74.6815
113.179
69.6835
46.7364
114.605
41.0114
125.424
41.9381
115.261
42.8714
72.9011
86.1243
237.191
44.0517
111.911
116.179
248.43
168.005
206.612
136.897
125.816
165.52
340.565
188.786
114.241
385.292
142.619
123.157
169.753
123.842
185.728
139.348
318.442
89.8226
146.076
115.741
68.0297
63.9192
89.7087
138.72
95.4046
66.4182
164.91
256.687
139.584
123.88
330.441
168.428
233.016
171.119
146.164
314.522
133.887
157.285
78.5324
70.1429
79.5081
247.139
74.5099
48.4489
411.51
459.891
68.7478
376.392
62.0749
37.6879
36.4917
203.357
294.579
61.5598
376.061
73.5433
38.6616
93.59
123.278
92.1931
72.4712
55.4739
94.6782
61.927
123.657
115.657
130.382
110.929
93.5184
60.382
82.3672
64.2037
46.0126
168.811
69.8744
108.864
71.9047
47.5925
243.489
82.4828
117.243
78.2783
45.9118
103.303
74.4987
63.4111
62.328
160.534
107.415
96.5367
84.5601
55.5811
16.5629
29.1151
15.6955
17.2806
29.2975
81.5007
28.473
44.6859
21.0687
19.1778
69.2346
36.4935
36.8389
13.2537
11.6679
12.6467
25.4832
35.1067
18.38
26.4063
15.6947
10.4084
14.2234
46.4792
25.6729
20.8401
31.8579
12.0746
10.3295
12.1812
19.7281
35.7088
36.4602
36.2837
13.9794
10.3758
13.1821
34.3783
38.7023
26.6642
27.686
12.6052
10.7009
13.1644
24.2706
39.1822
39.4502
40.218
14.1848
10.9499
15.7346
24.0514
32.2769
45.4293
23.4692
171.766
130.898
124.162
124.868
21.5018
29.4887
35.5913
30.5558
22.5446
25.8762
29.5953
31.8315
81.1515
17.5856
76.765
28.8959
63.5399
33.8109
149.162
68.7813
76.4483
290.861
71.2903
435.164
79.5105
22.9484
36.3716
38.2177
37.584
22.44
28.0586
30.8335
66.8217
136.211
203.46
121.875
60.1842
70.2081
83.3227
253.376
72.1181
75.3987
141.352
70.4518
92.4585
177.097
97.4324
33.2702
33.6632
32.3665
467.07
28.8325
33.0977
64.9405
202.892
182.977
119.934
78.387
70.3506
132.133
73.9249
75.2156
78.204
164.192
54.7017
63.3011
77.5858
38.5996
12.8833
19.9129
21.9105
85.87
17.5286
49.9652
42.1259
29.5213
37.6453
353.237
89.2003
87.2721
243.147
93.1094
615.577
106.293
106.041
145.913
156.882
376.38
169.429
191.896
130.306
225.646
66.9047
122.254
252.393
41.4159
10.5999
14.0025
26.5732
33.1077
10.9525
14.1006
65.6641
46.0347
211.766
115.942
57.8054
95.8702
240.397
262.806
226.8
159.352
706.8
92.6758
29.0928
30.8343
31.1216
22.3381
32.4482
39.3113
437.67
105.813
123.793
136.508
74.1671
104.789
79.1222
270.507
162.651
143.825
294.174
164.314
194.729
333.049
28.4617
36.7023
29.7025
47.9143
31.7281
41.2214
133.448
283.909
47.824
123.238
130.945
88.7705
196.516
224.957
390.201
184.428
143.019
233.103
364.714
76.0708
19.4874
43.4745
37.2077
27.9091
18.5061
48.7993
337.184
81.7342
38.1087
77.0623
77.7081
80.6456
64.3013
86.269
105.642
224.14
15.5715
27.5077
16.0207
29.1733
45.0783
14.0445
82.1925
24.456
34.3575
37.8685
28.4791
18.9798
144.355
165.605
77.8926
134.846
70.2645
61.1121
72.2819
24.8957
19.5154
27.0397
32.6164
18.146
34.9634
19.3561
119.143
94.3161
81.3078
64.5763
83.5791
30.3315
32.5279
27.526
28.9386
29.2314
28.2084
39.3603
34.6998
24.2123
30.2046
25.876
31.8795
15.469
13.8243
11.5666
11.5838
31.9093
37.3791
32.0886
10.9558
11.9596
10.9216
12.21
31.6218
35.561
37.9521
10.3163
12.1998
10.4429
12.2195
37.4337
38.424
28.9975
10.3677
12.5902
10.9126
12.8609
33.3881
28.0712
26.181
10.2866
12.9091
10.4168
12.5759
24.4712
29.0885
35.8046
11.2454
12.4148
10.4979
13.2066
30.9593
35.6088
35.9947
12.6026
10.4363
13.3048
123.048
61.2644
124.092
72.3386
80.8509
79.7296
41.5503
68.2255
64.7906
44.679
79.1344
66.8037
51.3324
200.522
74.0555
82.2332
200.101
141.642
201.442
200.509
47.3978
17.2915
12.9877
140.288
200.495
75.7421
200.129
82.6264
201.35
145.099
201.551
195.678
24.8395
62.5105
147.319
41.139
123.065
203.292
12.3258
48.0777
17.3237
57.5461
13.2979
42.9656
14.1898
12.489
45.9544
58.7346
19.1274
38.008
20.1347
12.7099
134.828
261.174
165.167
102.107
360.365
125.84
133.035
60.5065
58.5465
51.6609
35.4263
161.39
274.393
81.284
71.1781
65.2708
64.3902
241.434
181.492
50.1353
41.5903
71.6358
204.13
70.2723
238.834
42.0579
148.936
214.279
55.7402
66.4878
36.086
145.808
37.4275
161.737
56.5986
55.2752
59.2499
91.9321
50.1364
63.3308
116.618
98.2861
78.7023
232.466
109.164
103.536
95.2521
112.349
81.7057
123.762
231.925
118.932
189.977
90.0054
749.997
82.9909
90.8009
83.7375
64.0728
129.364
81.5961
382.334
299.516
306.969
150.595
140.965
65.9068
87.2944
79.7046
57.6382
183.364
151.442
390.668
289.536
59.3633
79.9746
67.2728
230.418
83.7017
131.992
133.175
118.56
317.935
267.876
162.023
207.231
192.096
153.747
90.1648
52.202
125.778
64.1788
227.485
78.3679
278.013
297.17
146.065
375.189
121.667
145.996
59.7423
47.4034
69.6248
56.5978
83.264
193.236
154.318
166.961
125.862
107.229
176.043
166.486
69.2306
86.8689
87.5214
61.6003
108.543
96.4725
284.689
261.101
200.364
1025.89
193.918
208.98
448.668
253.361
65.3303
106.665
81.9079
69.3217
73.0554
225.516
490.164
190.34
792.57
195.244
238.062
240.339
425.441
375.239
95.0179
185.523
161.766
328.168
100.45
146.64
279.407
55.6122
87.875
145.386
172.907
62.9871
91.9159
288.147
96.3926
145.939
300.064
253.08
135.036
97.3069
293.632
203.916
83.3108
200.45
81.7634
200.564
139.46
199.945
201.71
165.177
102.484
282.389
139.671
192.547
290.266
203.103
200.538
78.9436
80.7509
137.257
201.273
199.863
227.331
72.9281
157.025
38.3595
210.004
72.4302
178.39
165.239
160.738
277.779
105.284
187.9
112.999
232.563
11.5746
53.8304
19.5275
36.9617
12.3355
43.2105
12.7415
12.6251
88.5787
13.1055
55.0514
14.102
42.727
14.2488
11.9113
37.2902
65.8427
16.4356
44.3787
12.3254
17.6093
140.576
193.701
442.952
276.747
330.054
133.391
120.101
162.816
350.984
193.172
194.122
56.5525
55.9773
108.419
46.4377
329.172
283.341
124.903
114.468
115.609
157.163
282.375
111.88
53.7294
64.6697
35.8233
101.623
119.118
114.626
64.4471
26.2211
86.2456
75.486
136.068
76.4091
1081.68
154.877
106.235
103.869
116.269
87.5672
102.465
83.6036
160.619
76.6901
65.1397
105.717
52.3125
94.4637
38.3804
64.5625
84.8614
71.171
64.2877
52.2635
104.786
46.6313
38.3053
113.446
72.2889
60.5186
47.4366
87.4042
40.1803
576.437
64.4593
80.9485
114.487
66.9652
85.1437
55.2493
124.489
70.5127
97.5635
65.4113
90.4749
48.2884
252.035
167.779
146.653
82.5948
102.873
96.3243
122.785
128.633
126.573
137.914
221.267
365.678
226.863
148.661
341.249
162.633
119.651
82.723
65.4701
87.5844
133.799
73.7252
149.901
61.5593
65.1644
77.77
78.9155
79.9286
71.137
178.682
132.895
90.5449
60.3422
104.542
118.826
67.6115
168.785
105.193
103.706
84.7539
268.957
98.7396
81.668
1302.91
469.506
114.363
566.099
310.382
166.018
280.918
298.388
170.361
246.315
126.858
148.645
84.3675
69.1419
96.6738
129.241
71.6859
126.516
92.0471
93.7539
62.4771
79.2954
169.416
69.1716
143.29
115.671
213.331
84.5825
69.1192
105.85
121.388
196.124
711.199
308.499
323.217
180.793
134.246
311.209
124.498
74.3948
29.6178
75.0904
76.7744
65.0757
85.846
144.905
130.575
93.751
65.1257
109.955
248.773
68.3061
38.3002
182.788
179.428
81.7038
378.087
69.737
86.6104
131.664
123.584
123.535
100.453
135.191
127.739
298.874
210.369
283.928
426.99
210.396
181.537
209.085
390.381
50.7471
83.8778
26.3435
20.7677
67.6355
55.3847
20.1625
46.6091
78.5551
17.9149
18.1583
65.8699
44.3079
18.9542
49.0201
58.9694
24.3333
13.2466
73.6732
45.4938
13.3089
77.587
23.7529
53.1084
60.2619
168.463
48.3431
121.166
72.9968
58.183
76.0788
151.426
150.109
136.411
366.31
53.6973
94.0274
132.105
69.7485
494.603
67.0504
49.314
50.2386
42.3659
31.3901
60.0628
64.8456
22.9475
58.4065
70.7905
18.2579
23.6723
56.5962
80.3282
18.9758
143.308
149.975
139.998
517.345
105.272
112.406
112.577
101.875
51.6887
58.1811
65.536
15.1817
25.8278
51.7626
85.5362
13.6331
328.374
136.793
117.817
325.729
111.08
124.377
379.759
199.326
297.56
195.301
116.566
167.669
118.986
116.471
129.832
121.216
143.983
144.902
135.587
126.451
119.308
263.578
121.796
141.271
133.842
102.481
122.652
139.356
97.4355
147.658
395.332
630.512
156.265
99.9834
103.378
113.291
107.806
108.043
103.491
292.072
126.035
753
102.011
156.89
97.7264
117.87
108.212
101.053
104.374
143.129
174.766
145.151
132.558
101.925
161.736
107.707
137.106
172.736
149.619
116.74
136.782
181.674
106.042
141.367
110.578
159.269
141.848
100.866
148.489
77.2837
77.7182
140.851
85.8742
79.2557
78.5416
53.2961
171.003
92.8394
111.125
106.77
82.7723
69.5719
67.1135
60.637
75.165
67.3017
30.2054
24.5072
25.0821
27.4767
120.352
64.389
79.4587
51.7534
73.1117
79.0014
57.6382
62.2077
89.468
134.573
188.784
163.256
124.196
61.1183
91.6169
200.838
162.897
121.611
57.0452
62.3032
72.4859
129.613
241.707
122.808
62.114
70.9408
108.979
171.708
385.044
229.647
246.525
127.577
124.395
305.525
357.405
242.072
129.969
41.1092
72.5761
105.399
93.6144
64.639
162.75
212.637
57.3937
59.85
84.1473
72.5974
202.364
201.796
61.1602
43.9775
43.7974
66.147
205.048
223.305
115.543
223.629
69.8893
64.4166
79.3267
66.4037
101.318
171.263
174.918
127.038
127.001
66.5465
375.025
134.699
99.739
113.839
145.006
216.579
260.326
140.319
142.857
152.715
110.777
64.8663
80.7009
66.3777
85.7812
69.4947
102.005
92.2624
238.685
82.1246
122.45
62.7565
70.3193
104.805
76.8405
167.316
87.9776
46.9703
139.712
78.3465
72.9305
75.079
163.699
68.4331
88.2078
81.5479
39.2092
70.3024
94.5577
215.146
58.1828
64.2085
166.935
95.7879
75.4531
345.235
381.603
262.686
173.547
109.745
65.0878
35.7026
86.7734
71.5345
80.9154
117.753
294.231
116.581
94.9941
100.73
283.839
88.276
365.131
101.584
102.042
107.559
176.969
279.156
164.075
460.032
116.763
90.6476
124.171
111.494
98.9677
102.558
331.134
165.053
83.1043
177.239
190.498
155.091
153.547
175.816
214.937
121.961
251.116
225.803
206.186
143.87
149.524
199.55
211.148
595.023
128.658
127.662
129.934
255.585
75.9889
178.843
576.752
255.498
89.8207
141.734
116.883
145.843
403.71
183.945
230.786
218.817
147.824
357.98
273.729
131.3
79.4455
106.244
196.262
179.011
136.016
107.797
193.547
68.743
101.537
92.2052
83.4697
186.302
264.214
123.595
121.839
80.6629
68.1504
139.327
193.818
133.553
69.6202
89.2374
120.036
59.1927
93.7459
114.654
128.514
61.1496
52.2896
257.81
262.169
1738.74
307.302
251.228
150.376
165.012
171.622
165.921
242.749
281.882
199.542
162.193
352.895
131.122
148.65
164.71
89.2947
79.1664
152.065
76.0363
82.2168
84.0844
66.8567
185.594
236.187
142.011
127.725
127.033
114.059
107.373
251.653
120.361
120.664
112.404
47.155
96.5713
73.8414
85.0741
67.5138
41.7959
60.105
80.7966
48.2893
21.9928
235.716
245.775
118.875
129.825
150.32
480.736
114.985
311.529
200.512
193.69
237.703
269.217
132.339
136.456
157.924
117.231
271.437
289.792
187.758
194.158
170.893
284.059
119.512
129.284
866.887
111.06
201.922
134.875
106.148
112.252
69.108
87.0144
82.6907
419.578
157.79
278.23
61.1783
37.1075
141.567
371.558
76.5219
53.0608
42.5423
63.7564
115.771
60.3866
85.6772
72.3096
197.839
53.6813
61.9422
78.3271
92.5381
151.268
172.241
55.6531
29.3585
159.072
156.628
30.8792
203.033
215.721
268.436
137.313
140.212
366.926
219.794
200.007
422.31
410.058
187.451
228.768
369.486
207.246
129.948
135.43
60.5999
80.9423
103.938
165.138
47.5766
205.275
239.913
284.18
399.996
369.007
245.283
212.532
139.901
35.7686
129.163
63.7975
160.312
142.23
39.9433
166.749
53.4879
86.5118
81.6425
131.256
81.094
70.9017
435.057
55.7924
42.8863
64.9775
252.628
97.5048
46.6218
44.4548
21.3215
54.9514
21.7456
51.2482
24.378
24.2743
154.832
123.179
62.0308
104.916
127.485
144.215
99.7941
163.789
165.589
493.372
345.243
110.637
140.384
119.402
123.05
146.04
220.811
183.042
102.532
142.673
92.2623
543.658
128.651
110.692
244.999
108.183
584.044
126.882
158.511
109.036
106.047
78.7172
121.081
100.367
358.389
102.786
206.541
131.204
120.543
346.2
124.038
126.88
65.0075
80.2637
91.5942
45.6461
60.2066
46.2957
145.827
71.8508
65.0918
78.9539
68.854
79.2237
42.9711
124.787
93.0232
49.177
67.2529
72.9302
18.7398
28.1395
184.296
85.6493
68.1079
197.134
192.344
185.812
192.015
209.842
196.127
143.178
285.64
209.878
341.062
125.006
149.011
137.541
163.714
554.261
160.65
129.213
119.312
169.223
144.304
236.397
312.045
125.058
157.352
246.721
216.111
429.519
139.57
281.14
210.061
121.355
240.947
176.356
119.139
160.657
132.308
206.699
160.696
128.933
150.82
194.906
378.938
188.174
83.9693
198.577
72.3558
193.312
197.663
181.663
196.622
94.869
129.51
179.02
248.094
188.069
203.126
210.611
207.127
173.636
171.912
64.6671
124.96
192.411
228.411
152.236
518.093
182.256
223.169
214.347
234.211
198.761
76.6844
70.8122
146.148
220.136
79.9161
227.248
162.832
208.954
162.202
193.545
197.519
184.908
41.7306
74.6815
169.47
230.819
69.6976
149.58
124.392
174.678
147.289
191.673
299.858
205.541
480.668
307.918
107.949
108.701
102.556
147.729
127.527
534.356
488.707
115.396
173.661
162.488
130.407
277.809
90.6185
210.083
101.412
336.031
93.0463
132.231
95.926
247.205
104.285
582.628
108.353
108.501
376.624
108.579
84.3465
49.2742
100.549
41.2628
111.975
113.051
103.246
492.022
161.317
151.108
107.321
110.644
104.308
110.117
126.536
125.584
105.73
496.047
86.9803
335.297
105.912
267.973
91.3075
96.8279
87.7905
142.827
106.189
89.0308
228.423
79.5187
1041.27
286.175
146.89
297.595
115.423
135.374
129.957
1386.9
390.646
125.371
107.265
132.287
401.992
153.513
304.997
126.989
115.632
100.348
120.282
128.587
116.202
110.73
127.892
96.9707
126.714
119.721
127.554
119.019
125.282
107.785
120.754
115.967
119.853
98.0895
121.499
98.1476
99.525
105.124
103.321
96.0855
100.398
116.758
116.32
94.0775
109.849
131.103
108.026
118.41
96.6943
98.1465
98.0298
89.6827
429.987
401.875
458.767
323.137
352.978
419.037
224.429
434.265
268.646
319.247
182.745
177.825
622.599
145.289
317.207
178.638
185.52
133.815
211.932
114.099
195.488
194.594
301.083
132.116
139.455
229.439
318.821
197.331
195.17
203.472
256.694
122.74
219.886
418.666
326.179
216.222
171.822
169.536
166.183
220.871
135.414
164.487
135.024
186.102
127.263
113.873
130.628
139.033
194.351
87.2367
274.39
147.178
142.715
161.037
204.638
128.66
145.752
126.129
549.42
129.239
193.073
132.047
273.365
70.8293
190.346
101.615
110.824
105.154
92.3975
54.6289
88.8771
96.8931
224.338
115.077
129.936
190.173
111.986
128.713
145.911
129.073
99.5769
116.172
109.822
93.3679
103.086
102.291
137.277
89.5557
104.09
120.585
107.543
133.457
116.947
140.116
145.911
129.426
118.146
518.081
122.203
123.974
133
610.99
135.637
158.372
189.22
321.078
299.252
269.955
109.329
165.473
222.219
145.337
151.858
237.979
116.063
222.102
149.545
247.962
185.793
98.1166
136.76
131.18
310.129
89.2707
133.203
141.815
72.6844
306.675
163.466
150.999
129.263
127.955
96.0252
141.389
891.184
171.64
311.434
144.781
835.359
145.915
284.257
137.526
74.8032
148.088
121.386
120.367
594.132
282.799
131.165
135.26
78.406
474.231
142.085
124.847
193.994
162.277
110.247
140.809
419.33
203.23
108.841
109.814
213.315
116.495
138.503
515.753
112.804
146.658
222.259
114.384
121.651
446.964
105.861
137.311
230.166
111.285
200.303
131.286
487.165
118.89
96.5179
209.047
108.191
127.449
230.944
198.986
105.549
103.307
362.279
103.073
159.964
213.89
193.13
355.358
163.8
106.299
101.473
199.663
133.246
195.792
91.1334
371.339
108.256
819.131
150.007
779.209
354.599
144.79
149.65
464.803
349.031
191.235
330.04
238.646
145.465
132.046
106.094
469.56
84.5584
176.352
162.951
140.648
315.929
141.317
112.986
97.6131
169.254
167.707
141.43
563.82
424.651
325.42
266.752
199.591
414.752
1027.64
273.998
321.763
335.347
117.064
388.296
262.337
223.273
324.983
248.675
120.351
226.79
247.116
512.997
140.643
241.147
207.697
241.488
153.417
201.126
107.701
129.935
377.947
280.25
138.678
103.47
383.388
102.069
154.857
196.788
161.473
141.691
104.186
186.115
108.832
412.549
138.294
200.4
142.287
108.582
190.234
102.551
279.787
126.635
174.218
143.746
104.181
172.54
273.166
116.615
273.888
241.972
112.673
283.472
301.414
130.401
261.534
125.858
422.137
331.096
264.972
217.076
114.438
332.157
111.125
431.98
363.881
453.741
294.114
183.481
376.101
140.637
256.51
157.024
133.732
199.103
189.258
367.031
132.621
130.341
145.856
191.938
224.276
258.925
416.942
479.519
164.558
189.548
214.864
128.524
189.853
112.753
77.0553
144.478
108.785
106.454
111.54
102.485
135.509
125.619
118.397
223.398
194.915
115.377
149.328
191.575
114.463
130.931
112.632
231.292
110.336
147.129
161.189
110.05
123.379
120.606
208.087
119.191
112.063
174.18
118.542
133.98
158.828
112.146
125.286
106.756
150.945
120.604
114.55
137.213
102.02
111.962
120.636
141.737
116.121
113.456
107.468
102.662
119.625
108.203
133.112
201.267
358.264
293.258
230.461
211.159
1890.07
322.29
225.66
245.2
121.82
224.784
185.311
170.067
204.359
227.541
130.283
290.373
188.698
207.25
357.414
347.066
239.624
221.186
139.346
196.185
173.687
130.67
207.988
174.219
123.047
211.702
183.706
175.303
152.138
122.703
345.203
187.727
221.4
220.37
355.782
264.581
243.118
335.407
287.956
253.641
200.352
272.529
215.507
197.203
188.16
179.083
199.173
177.869
169.975
215.325
175.904
171.221
120.795
185.515
172.384
151.665
377.066
974.031
180.696
166.114
131.371
199.023
182.204
192.007
193.328
173.51
171.668
197.664
169.67
500.6
98.7654
124.445
301.615
375.781
102.353
121.356
255.738
97.7236
142.504
278.446
136.153
150.724
98.5077
254.332
98.5317
310.291
156.038
277.98
149.822
103.528
257.913
97.9976
164.562
100.012
159.91
99.0882
121.531
253.61
122.816
133.682
280.674
161.236
112.768
134.379
156.732
108.213
144.577
171.199
180.927
144.116
115.076
157.967
120.988
275.424
142.47
178.498
144.855
112.34
166.767
103.604
182.321
97.3661
159.262
114.369
112.826
167.564
472.321
197.827
437.604
228.493
252.647
493.708
168.645
188.143
197.905
208.661
378.065
161.539
115.791
173.049
157.362
228.287
193.689
512.609
246.894
381.37
155.465
141.148
118.56
159.801
203.284
191.861
417.378
217.773
220.618
474.9
217.306
244.793
254.216
146.452
195.605
311.193
209.672
161.116
126.065
88.2546
104.493
168.305
87.2845
161.813
159.927
129.662
170.308
162.697
128.267
204.108
126.717
153.458
97.7405
105.755
88.1945
136.159
160.979
141.798
298.502
161.999
172.946
134.362
200.259
135.334
212.325
167.314
198.926
443.646
2211.64
406.783
323.343
406.709
440.548
314.38
408.001
407.116
379.164
313.642
230.722
958.831
303.166
922.762
407.582
187.179
273.587
321.462
232.239
180.163
273.704
877.84
95.3615
232.971
134.216
183.631
119.918
161.982
114.281
84.861
148.212
96.1099
245.312
84.1489
272.608
103.224
90.5979
320.332
100.311
253.109
121.77
277.817
87.1231
92.4874
70.8529
164.353
100.427
146.025
103.758
61.7607
78.9918
104.02
246.082
256.765
272.322
100.459
80.5541
92.1292
128.749
100.539
250.243
104.142
84.9183
245.86
97.4631
126.107
132.482
249.556
108.332
118.424
249.332
91.3218
111.235
251.923
255.383
84.567
114.982
252.28
94.8672
252.133
121.486
252.916
94.8114
117.898
292.262
94.3657
110.703
259.297
261.342
100.136
114.171
290.047
205.204
104.226
200.504
174.886
200.844
205.112
195.442
204.671
102.296
174.145
199.931
204.498
195.818
199.992
205.09
203.563
144.988
151.637
204.61
203.953
173.693
141.052
344.694
204.484
203.066
135.834
203.76
623.45
204.598
124.174
170.819
200.385
204.715
164.504
201.398
203.313
100.406
135.162
337.026
204.266
139.397
284.344
375.064
334.413
204.604
203.081
148.395
133.442
202.958
203.726
151.498
572.739
351.64
205.09
88.7429
184.733
164.457
196.223
202.985
193.838
203.622
103.422
200.008
175.069
193.988
200.075
203.275
204.986
198.925
171.983
157.788
182.26
196.914
200.014
228.738
231.496
232.725