/*--------------------------------*- C++ -*----------------------------------*\
  =========                 |
  \\      /  F ield         | OpenFOAM: The Open Source CFD Toolbox
   \\    /   O peration     | Website:  https://openfoam.org
    \\  /    A nd           | Version:  10
     \\/     M anipulation  |
\*---------------------------------------------------------------------------*/
FoamFile
{
    format      ascii;
    class       volScalarField;
    location    "0.05";
    object      omega_0;
}
// * * * * * * * * * * * * * * * * * * * * * * * * * * * * * * * * * * * * * //

dimensions      [0 0 -1 0 0 0 0];

internalField   nonuniform List<scalar> 
114940
(
11.1521
10.026
11.2508
10.0888
10.2734
9.91429
10.0011
9.86317
9.84449
9.96006
9.85447
9.80512
9.80914
9.9841
9.93389
9.99655
9.78903
9.77703
9.78946
9.8041
10.0217
9.87928
10.0147
9.78462
9.79941
9.80699
10.018
9.90353
9.89398
9.93674
9.89688
9.93878
9.92121
9.95032
9.77048
12.8109
12.9229
10.6447
10.0252
9.78909
12.0144
11.4255
11.7586
10.1898
9.91137
12.8764
10.4256
17.1244
12.3665
10.2803
12.4397
10.2262
10.2201
11.2734
17.2927
12.3043
11.8091
16.0739
11.4093
10.1446
10.2255
10.7895
16.4937
12.0431
11.897
15.5632
11.009
10.5851
10.4297
20.0583
12.1312
10.3397
12.2484
15.6547
13.9734
17.0769
11.9668
10.3259
10.1559
10.1461
10.1215
10.0237
10.065
9.94102
10.1123
9.84472
9.86733
9.98876
9.868
9.84901
10.0474
9.895
9.93786
10.0226
9.93125
10.0563
9.90764
9.79206
27.9031
13.3223
11.1217
10.2045
9.95625
33.45
32.1274
11.3024
17.8806
12.26
10.3113
30.3119
33.146
11.2155
15.0591
18.7245
12.2855
11.6085
11.6255
10.7291
11.0641
14.5087
18.9258
11.9941
16.8683
14.3095
10.8087
10.2342
10.241
10.5074
14.571
19.8347
10.9402
11.0782
16.1536
15.2332
10.8484
10.3184
10.4103
11.5561
15.4932
11.9928
11.1349
15.8873
15.1475
11.276
13.9896
14.3917
12.3602
17.3677
11.7454
11.6265
16.3197
13.4581
12.3108
13.1663
10.9632
13.3871
11.4073
10.2374
11.8702
16.2321
12.2871
11.8576
17.9069
11.9866
10.3791
12.1461
15.6364
17.0653
12.1583
10.3619
9.98844
9.94671
10.228
9.96006
9.86733
36.0426
12.8772
18.2845
11.8811
10.2559
231.046
61.6176
34.5359
20.4773
19.1178
11.7906
80.1457
43.9739
63.0075
34.3333
15.206
17.2557
18.8484
11.6633
38.6174
27.3558
79.416
72.7773
39.6555
32.303
18.5817
20.3895
11.2433
13.4268
17.9118
30.9963
74.1259
75.5358
36.0583
16.092
20.8329
11.6618
10.4663
16.4612
16.7799
30.1027
78.9278
83.853
34.741
16.9774
16.9822
11.6905
10.7809
16.5902
17.9472
39.9989
32.014
33.657
42.3329
15.5338
23.7131
11.0576
15.2665
13.5538
18.8788
33.2667
36.5611
16.504
21.2103
11.3493
16.1428
15.2621
19.6783
50.8461
14.3131
24.1006
11.9241
15.8698
13.8869
12.273
17.9629
12.483
10.0128
9.8058
9.81455
9.98765
10.1071
9.97486
9.87725
68.8548
11.1782
20.3838
11.8843
10.2566
37.6974
38.4835
14.5472
20.7225
11.7945
72.9216
43.057
13.7543
19.5147
11.6523
32.2395
30.8461
486.99
31.4664
42.8449
13.7843
21.5537
11.1311
12.6092
17.8188
22.7516
114.359
215.035
79.5374
44.3247
18.3268
11.6667
10.5843
14.8307
16.2759
29.3021
574.051
330.049
77.9047
49.7294
16.9502
11.402
10.7934
15.3285
18.1578
24.4201
87.7244
779.687
43.1696
18.4946
24.5141
11.0101
16.9667
14.5999
34.1475
89.7659
216.901
52.1872
24.7858
11.4341
18.4616
15.9927
33.8949
24.9661
17.9185
24.9902
11.897
17.2692
12.6086
11.0764
19.1617
12.3749
10.0131
9.80022
9.81031
9.98631
9.99331
9.83302
9.78092
57.5815
13.7192
11.1042
10.2071
9.95038
96.2059
14.8387
19.3659
12.2542
10.337
101.408
62.7383
30.8012
43.6995
14.0356
20.2347
12.283
10.0453
41.9785
40.4445
27.195
21.4765
45.938
12.9834
18.7224
12.0335
10.5803
14.4679
14.0094
21.7891
22.3744
28.427
46.2252
13.1952
20.3485
11.6924
10.8077
16.871
18.3496
36.323
22.3123
28.831
44.5847
13.5679
17.2823
11.0672
11.4399
18.0964
14.5308
20.7739
28.6604
28.4399
17.6592
19.3778
12.0974
10.1488
11.299
19.5836
20.2815
28.5814
33.3039
17.912
32.4761
10.0604
11.8147
19.3716
12.9762
12.4308
18.0311
12.6443
12.2704
17.979
15.3953
12.336
9.92166
9.97955
9.95749
10.1274
18.2918
13.9826
16.2344
10.285
48.8242
14.7117
11.6042
11.5864
58.8684
15.0016
11.6253
11.5525
17.5945
12.3335
10.2793
9.84412
12.1981
11.9012
13.2382
12.6888
10.4679
11.5942
18.0327
12.3448
10.0392
9.95124
10.21
11.4563
14.846
11.2147
10.5931
11.4863
16.3383
12.0426
10.6469
11.5444
16.8553
12.0824
11.0777
10.5323
11.321
19.4809
11.6852
10.0946
12.2501
16.3619
14.0761
11.5851
10.9022
18.1716
12.6143
10.5668
10.1053
10.2042
11.9982
18.0731
11.9137
11.4972
23.8699
12.7248
12.2596
17.6649
16.357
12.6515
10.2381
10.1543
10.9496
17.6219
11.3031
10.1913
17.0022
11.6969
10.1676
9.87347
13.3406
16.1752
12.0176
10.2081
9.88948
10.0121
9.87786
10.0347
10.106
10.0333
9.8357
9.80369
9.81034
9.96788
9.90385
9.8118
9.82329
9.86238
9.7792
9.79395
9.80789
10.0604
9.96187
9.95906
10.0091
9.79032
9.80418
9.79604
9.87764
10.0212
10.1314
9.95176
9.95363
9.80019
9.85704
9.92066
10.0321
9.98553
9.83027
9.90827
10.2401
10.045
9.95142
9.78953
9.9857
9.79433
9.99464
9.8708
9.87911
9.95496
9.88215
9.81548
35.0937
35.0315
32.1431
37.4325
54.4936
39.2524
25.6241
38.1003
137.299
32.6676
68.8482
92.6818
40.435
32.2243
48.179
65.2354
33.6993
27.1567
27.3947
17.7491
34.22
19.3355
19.3375
31.932
23.8181
27.662
63.2017
63.583
15.002
55.4208
71.1998
63.9668
33.5259
26.6356
34.3621
24.0283
64.7065
14.3783
32.9714
14.3768
467.15
38.9104
66.4669
41.9618
61.6657
44.0282
33.8126
66.6129
51.7686
35.1366
28.2709
63.9249
53.1454
35.6322
37.0028
329.801
19.5858
85.5623
76.2311
37.0701
76.4627
75.2385
533.555
87.2828
70.8653
85.9449
76.4115
26.7622
69.4814
32.5435
58.8757
25.018
77.9118
90.4479
34.6576
33.5111
31.8113
388.975
33.2082
26.832
89.9406
22.334
93.3897
505.136
74.3024
150.156
57.6437
74.9352
94.3162
60.931
161.281
257.579
93.4555
76.9023
96.2115
267.731
74.5295
316.86
28.4259
34.3888
29.5995
326.765
85.6119
128.477
304.065
66.5886
109.598
68.9327
12.9875
43.8142
13.2001
65.3023
34.0416
112.338
61.1956
13.2985
39.0963
12.4871
45.8251
15.9261
49.4633
21.9952
606.208
122.212
44.3388
72.7569
109.23
68.8277
22.3656
92.787
235.769
140.279
84.073
33.0405
70.6169
396.89
125.639
79.7443
19.1641
28.131
83.6686
991.121
73.3534
30.2728
31.8147
92.9948
72.5765
152.543
214.399
80.1555
28.2706
59.0011
91.3661
80.5403
884.078
345.253
20.3642
25.465
75.6581
78.2085
109.796
115.49
441.205
27.5834
25.6576
15.8973
22.2346
115.473
27.1422
24.9338
116.179
87.6936
20.4854
16.6269
33.0879
139.906
87.6979
23.9096
19.191
31.203
12.8644
10.3338
11.7749
27.2656
31.552
35.6592
30.8996
12.4049
10.2412
11.979
18.9087
38.2257
19.5855
36.7709
12.4687
10.2543
12.3143
22.5882
40.5617
22.3449
37.1653
127.013
105.4
109.022
94.4797
40.0964
68.7035
92.4932
63.6563
131.605
65.2136
67.1744
69.9496
209.925
166.799
76.1573
76.941
231.519
71.1789
149.834
154.95
41.2001
78.6083
43.6693
26.6911
38.4777
235.341
57.3923
105.651
33.1708
42.9812
34.8546
108.073
28.8976
22.6316
89.0283
26.9206
93.255
136.043
293.283
25.389
1034.58
29.8343
84.797
30.6822
69.3443
29.0427
308.812
69.7142
99.2157
26.9209
33.0146
345.249
62.2997
84.9107
42.5089
26.7926
32.2724
78.7685
30.3981
303.867
62.1321
38.0902
32.7939
40.1065
92.6548
353.915
29.6671
73.2003
13.8802
17.1942
60.8492
94.0426
14.3948
14.9678
41.2718
26.0261
72.5154
66.6427
19.8512
76.5619
24.3282
122.643
212.349
53.0715
55.7706
172.773
34.5677
124.24
378.381
68.9136
46.37
261.05
203.704
114.614
133.912
135.168
28.7865
43.6714
37.8947
36.8324
86.482
27.2686
316.344
37.0819
34.5126
30.9614
29.1554
20.905
47.7626
74.5511
122.933
33.8198
88.9892
38.4329
42.1868
166.991
133.276
547.978
188.868
347.695
123.683
133.67
33.1846
191.595
65.2751
36.1556
37.7081
28.0921
25.813
221.213
68.5473
404.955
18.2349
47.6346
27.5699
112.169
141.148
123.115
234.683
155.604
86.0453
127.444
30.7579
304.466
77.6584
37.7914
38.0224
28.9136
28.4558
361.256
69.2874
75.1993
68.3098
84.4036
33.2419
26.152
52.3721
183.93
438.882
105.437
378.297
58.8442
55.4964
34.2635
450.527
53.8143
38.0794
38.2488
15.9517
29.7895
584.877
27.3001
81.043
18.5037
21.0204
42.1409
27.1107
58.2609
15.0336
33.0777
29.6879
57.8596
100.499
103.991
49.5942
123.642
68.2442
57.0975
47.0211
22.4587
34.7968
24.7241
39.3643
85.4547
26.1696
29.2261
34.6364
34.2495
31.5909
48.2543
31.2516
18.6641
36.6037
10.2331
12.3918
10.2287
12.121
32.0626
19.8275
38.8761
10.2541
12.6128
10.2589
12.3443
23.9109
66.0879
104.28
73.1067
106.491
64.2375
147.494
120.757
55.2037
65.8509
96.4554
118.216
71.838
58.2647
68.4464
105.535
48.7573
137.528
141.882
52.0254
91.5893
51.0134
122.756
52.1329
243.343
72.6838
88.9019
64.6911
45.4987
73.8828
49.9302
447.158
118.527
109.372
51.096
116.715
115.966
71.8035
59.9888
111.611
620.329
106.652
113.593
464.963
92.5685
219.945
97.3923
45.3022
55.1754
47.1457
53.3715
46.9795
42.7742
308.664
59.4068
279.782
231.18
295.369
310.555
313.119
67.9637
256.462
171.936
258.789
194.844
60.7739
81.3589
77.8922
138.582
58.7353
46.8686
66.8973
68.5257
72.0106
129.733
114.526
51.2617
115.316
63.6174
52.4084
80.4665
67.6885
76.6456
63.9221
316.913
70.4765
119.369
125.712
127.506
79.3552
107.453
75.4395
114.974
66.6292
405.251
110.243
107.491
274.549
61.493
69.1884
347.445
70.1726
203.411
87.1227
60.6359
258.308
57.9555
158.329
201.878
210.565
224.582
81.2265
170.582
143.52
185.259
147.094
526.537
887.463
172.053
173.133
71.6159
466.208
130.853
142.742
135.844
152.553
61.848
59.8541
283.444
73.5813
52.2162
72.0019
50.2898
57.7388
173.553
63.1112
89.2809
258.281
63.8564
425.145
154.936
181.838
386.028
55.6487
59.7638
260.145
209.923
783.534
348.305
170.638
127.914
74.8839
436.705
84.5667
249.046
172.077
78.0188
66.957
134.722
69.4736
203.109
193.087
181.662
97.8194
61.9344
136.522
61.2316
122.614
168.66
221.932
497.362
151.099
149.436
708.73
211.836
88.1316
133.353
100.246
126.098
125.387
221.846
157.612
303.904
194.009
218.01
170.339
124.24
144.3
196.88
262.688
76.5287
64.1206
241.467
67.0784
205.189
189.774
269.671
100.215
64.975
176.609
66.4828
239.306
186.233
432.958
176.714
119.009
377.318
132.175
249.609
427.784
78.1882
107.671
248.837
118.463
228.763
420.335
425.422
343.824
250.933
422.064
221.482
251.619
262.127
64.4206
219.493
138.328
266.811
68.7061
111.131
295.137
69.1778
71.6127
252.595
249.61
80.7604
66.4729
297.743
51.8186
87.6802
200.83
256.444
90.2979
53.6906
295.497
101.774
98.1483
120.701
109.272
119.143
100.912
102.98
119.724
17.3463
86.0447
17.7949
94.4623
15.8626
68.8767
16.2593
37.7487
64.0998
15.0525
89.4337
37.161
13.5934
62.9011
15.1628
13.5948
85.1084
98.099
161.881
81.733
67.1843
139.57
99.6559
109.902
154.573
332.079
68.1745
127.854
150.502
132.699
509.482
144.713
127.366
158.096
290.697
38.676
33.4007
333.765
94.3743
218.771
314.487
112.462
29.0569
63.6822
282.52
129.538
155.353
41.1452
197.601
77.1784
38.7571
115.395
428.103
477.235
68.4077
132.998
141.264
125.24
164.924
114.16
564.875
45.0191
79.9156
133.706
106.572
131.471
233.566
96.6047
137.354
1641.04
107.187
74.4824
113.522
69.3316
46.8099
115.055
40.4802
126.727
41.8537
116.346
42.5824
73.3461
86.5003
239.729
43.5208
113.078
117.017
251.027
168.702
207.837
136.721
126.38
166.641
340.497
189.448
115.096
387.078
143.241
123.98
170.699
124.641
186.263
140.556
319.993
89.2423
146.816
116.268
67.8014
63.9895
90.2363
139.598
95.9234
66.5886
166.548
257.546
140.4
124.331
332.995
170.292
233.744
170.676
146.266
316.887
134.406
158.455
78.7197
70.2977
79.4721
250.063
74.6383
48.3103
413.192
461.045
68.4097
377.818
61.6874
37.6177
36.1445
203.525
295.715
61.4738
377.494
73.441
38.3302
93.4101
124.955
92.0342
72.6614
55.4102
95.0033
61.8371
124.477
116.223
131.636
111.432
93.4935
60.2991
82.4396
64.1471
45.837
169.405
69.3269
109.446
72.0902
47.267
244.554
82.0504
117.972
78.4213
45.893
103.506
74.4585
63.3464
62.1742
161.193
107.944
96.8713
84.5886
55.475
16.5219
29.1238
15.6471
17.1825
29.2628
81.8934
28.3491
44.632
20.9907
19.0357
69.2292
36.4864
36.7844
13.2059
11.6618
12.6047
25.39
35.1171
18.3116
26.332
15.644
10.4006
14.144
46.607
25.6015
20.716
31.6351
12.0184
10.3214
12.1238
19.6308
35.4765
36.3666
36.0321
13.9187
10.3681
13.1271
34.125
38.6942
26.5825
27.6437
12.5382
10.6892
13.0943
24.2125
38.9095
39.3535
40.0893
14.121
10.9371
15.6664
23.9588
32.2401
45.5507
23.3905
172.368
131.36
124.579
126.148
21.4577
29.3442
35.6096
30.5874
22.4764
25.7375
29.5641
31.6674
81.5182
17.4458
76.8495
28.8287
63.7941
33.6652
149.974
68.98
76.5396
292.782
71.5356
434.996
79.42
22.9005
36.2163
38.2128
37.6092
22.3786
27.9372
30.7809
67.0021
136.696
204.59
123.097
60.4499
70.4432
83.1936
254.384
72.4038
75.3883
142.452
70.6224
92.3574
177.96
97.5618
33.3777
33.4113
32.362
469.057
28.7798
32.9584
65.1281
204.66
183.44
120.179
78.5325
70.5297
133.112
74.3121
75.6845
78.4535
165.705
54.5395
63.0366
77.0587
38.5241
12.8778
19.8251
21.8244
86.2018
17.5356
49.9913
42.0224
29.4708
37.4839
354.751
89.501
87.2973
244.672
92.4405
617.501
107.055
106.6
146.372
159.056
378.897
170.736
193.554
131.193
227.602
67.2432
123.008
254.6
41.2798
10.5894
13.9414
26.3667
32.9845
10.9438
14.0533
65.715
45.315
213.34
116.939
57.854
96.1736
241.535
265.057
228.405
159.319
705.05
93.391
29.0777
30.7411
31.0721
22.1624
32.5637
39.207
438.943
106.749
124.748
137.917
74.3371
104.747
78.9376
272.192
162.931
144.459
296.251
163.845
196.668
335.415
28.4248
36.5417
29.5488
47.6861
31.8547
41.0739
134.542
286.901
47.6788
124.437
131.899
88.7245
198.846
226.655
391.334
185.609
143.986
233.797
366.308
76.3078
19.4659
43.4221
37.2063
27.7716
18.5029
48.7865
339.767
81.7777
37.9901
76.963
77.8255
80.8905
64.6434
86.6265
106.556
225.592
15.4559
27.4555
15.8995
29.0134
44.5767
13.9823
82.3616
24.3918
34.3834
37.8706
28.4826
18.9307
144.942
166.329
77.4558
136.437
70.353
60.8558
72.5241
24.7968
19.3776
27.0137
32.6173
18.0993
35.0661
19.3127
119.852
94.1538
81.5187
64.5954
83.9312
30.1347
32.3594
27.3248
28.78
29.1848
28.1156
39.3434
34.7682
24.1522
30.1404
25.8103
31.6627
15.4402
13.7684
11.5519
11.5401
31.6832
37.3753
31.9619
10.9459
11.9072
10.909
12.1554
31.4365
35.4711
37.7782
10.3078
12.1443
10.433
12.1632
37.1567
38.4398
28.8564
10.3576
12.5236
10.8982
12.7974
33.3319
27.9563
26.0387
10.2791
12.8416
10.4081
12.513
24.4376
28.862
35.8167
11.2373
12.38
10.4903
13.1599
30.8387
35.397
35.992
12.5441
10.4275
13.2554
123.847
60.9424
124.915
71.8757
81.1117
79.6662
41.4189
68.0525
64.5272
44.2027
79.5576
66.9376
51.3945
201.553
73.8408
81.7745
201.223
141.989
202.526
201.631
47.3975
17.2012
12.9403
140.921
201.52
75.4631
201.247
82.2472
202.427
145.436
202.66
197.548
24.6504
62.3738
148.201
41.0257
123.961
205.445
12.2808
48.0931
17.2449
57.5495
13.2568
43.0241
14.1293
12.442
45.9278
58.7322
19.0691
37.9619
20.0513
12.6772
134.778
262.485
165.761
101.564
363.277
126.257
133.332
60.2133
58.557
51.6082
35.2972
162.189
276.054
81.1536
71.2746
65.209
64.5805
243.007
182.449
49.6134
41.3318
72.1002
205.131
70.717
239.813
41.8164
149.57
216
55.9294
66.376
35.9372
146.205
37.2806
161.838
56.9197
55.4796
59.1878
91.9518
50.4214
63.3961
117.966
98.8116
78.375
233.329
109.892
104.563
95.7032
112.984
82.5075
124.224
233.915
119.119
191.288
90.4293
753.513
83.2194
91.3117
84.0015
63.8974
130.503
81.7238
384.738
300.964
308.296
150.991
141.249
65.9633
87.3024
79.574
57.5366
184.055
151.194
393.011
291.233
59.3609
80.0983
67.5306
232.398
84.1762
132.106
133.811
118.598
319.836
269.907
162.526
208.685
193.182
155.032
90.2326
52.5216
126.109
64.0674
228.392
78.3368
279.333
298.519
146.65
377.698
121.958
146.795
60.1267
47.315
69.8193
56.5
83.4606
194.647
154.647
167.305
126.964
108.202
176.884
168.073
69.6149
87.1682
87.7804
61.5616
108.441
96.1874
286.753
262.338
201.121
1226.39
194.752
209.772
450.175
254.845
65.5607
106.782
82.0263
69.3314
72.4704
225.879
493.129
191.046
794.811
195.937
239.058
242.011
427.736
378.677
95.0499
186.656
161.577
328.938
100.327
146.106
281.891
55.5474
88.3101
147.234
172.28
63.0715
91.9782
291.241
96.9747
147.124
302.066
254.915
136.106
97.9254
296.574
205.045
82.8826
201.595
81.2931
201.704
139.607
201.072
202.78
166.671
102.767
285.135
140.626
193.609
292.266
204.221
201.677
78.5853
80.2175
137.363
202.388
200.985
230.158
72.8214
158.252
38.2532
212.298
72.3022
180.045
166.362
162.164
280.656
105.381
188.932
113.526
234.729
11.5429
53.8029
19.4727
36.9257
12.3039
42.9382
12.6957
12.5641
88.6225
13.0326
54.6514
14.0184
42.3535
14.1698
11.8662
37.2258
65.694
16.3384
44.1046
12.2708
17.5356
141.093
195.296
444.681
277.98
332.203
133.96
120.777
163.509
350.972
194.775
195.192
56.3983
55.9131
109.404
46.1075
330.651
285.383
125.647
116.047
117.062
157.59
284.237
112.926
53.589
64.6616
35.3948
101.357
120.13
115.312
64.3775
26.1102
86.6231
75.8575
136.573
76.7886
1100.96
155.472
107.047
104.295
117.123
87.7674
102.151
84.1365
161.142
76.9686
65.0775
106.014
52.2149
94.6218
38.1709
64.6196
85.3774
71.0821
63.1793
52.0832
106.407
46.3095
38.1941
114.292
72.3612
60.6691
47.0841
87.8467
40.0037
578.19
64.2784
80.7945
114.167
66.4297
85.5453
55.451
125.33
70.8312
98.0624
64.6928
90.9312
48.2636
254.198
168.18
146.993
82.9812
102.908
95.8448
122.512
129.086
127.031
138.378
222.611
368.061
228.4
148.468
341.968
164.048
120.156
83.2252
65.4061
87.5984
135.261
73.8824
150.844
61.4241
65.4355
78.0788
79.186
80.1787
71.3178
180.231
133.366
90.9221
60.3999
104.287
119.453
67.6814
169.788
105.433
103.993
85.1279
270.291
98.6343
81.3116
1082.48
473.534
115.181
567.078
311.813
166.488
281.257
300.412
170.754
246.96
127.504
149.426
84.7996
69.2982
96.5335
129.857
71.8498
127.208
91.8643
94.171
62.5157
79.066
171.274
69.2677
144.107
116.471
214.138
84.9502
68.7972
105.685
121.454
197.898
714.317
310.322
325.208
181.007
133.245
312.138
125.009
74.0905
29.4267
75.3731
76.7891
64.6286
86.2015
145.829
130.547
94.1196
65.0809
109.798
251.74
68.3256
37.974
185.175
178.717
81.7999
379.49
69.8123
86.4691
132.3
124.384
124.009
101.394
136.118
128.563
300.101
211.641
285.182
427.389
211.596
181.36
211.996
391.771
50.8246
83.5687
26.1739
20.6336
67.963
55.1606
20.0089
46.633
78.5795
17.7939
18.0415
65.7113
44.3339
18.8257
48.9898
58.8778
24.1213
13.184
73.8919
45.4227
13.2428
77.9995
23.6209
53.0758
60.3232
169.212
47.9956
122.008
73.0144
57.8307
76.2375
152.107
150.577
137.199
367.923
53.486
94.3891
132.438
69.9867
496.968
67.3299
49.2214
50.1267
42.2337
31.273
60.026
64.6427
22.807
58.568
70.5078
18.1369
23.5782
56.3735
80.6925
18.8608
143.974
150.432
140.814
519.642
106.297
112.631
113.117
103.113
51.7964
58.1357
65.3618
15.1048
25.703
51.5053
85.8527
13.5743
330.252
136.915
118.19
327
111.376
125.273
381.368
199.794
298.888
196.731
117.001
168.019
119.233
117.256
130.623
121.492
144.834
145.656
136.517
126.923
119.828
265.811
122.303
142.045
134.8
102.752
123.061
139.985
98.1833
149.668
396.799
632.762
158.085
100.579
104.599
114.059
109.011
108.62
104.457
293.976
126.917
756.383
102.643
158.463
98.585
118.215
108.833
101.671
104.943
144.749
176.393
145.697
133.711
102.543
163.576
108.513
137.869
174.837
150.055
117.593
137.671
184.659
106.835
141.812
110.765
159.723
142.735
101.495
149.854
77.488
78.1397
141.854
85.4004
78.8944
78.9575
53.195
172.975
92.5442
111.427
106.494
82.3691
69.8439
67.3108
60.5989
74.924
67.2823
29.9669
24.3576
24.9408
27.259
120.815
64.353
79.5841
52.2392
73.4711
79.0241
57.8798
62.2578
89.6482
135.687
189.245
164.114
124.998
61.1663
91.7461
202.505
164.122
122.544
57.2261
62.2626
72.5681
130.128
242.664
123.547
62.1134
70.7294
109.23
173.632
386.739
230.495
248.55
128.201
124.883
308.156
359.2
244.362
130.723
41.0118
72.654
105.642
93.7575
64.9545
164.324
212.527
57.0523
59.5439
84.6288
72.742
202.009
201.897
60.9298
43.8335
43.6548
65.9938
207.109
223.431
116.296
223.59
69.6833
63.9509
79.0235
66.4048
101.51
173.748
175.406
127.527
127.5
66.5747
377.746
135.626
100.636
114.747
146.176
219.063
262.81
141.114
144.014
154.189
110.971
65.0248
80.9953
66.5036
85.946
69.7259
102.151
92.5944
241.228
81.8523
123.142
62.7638
70.3571
105.176
76.7228
166.876
88.1497
46.741
139.522
78.6593
72.8812
75.2991
165.19
68.5838
88.813
81.9194
39.2264
70.1902
94.6532
217.629
58.114
64.2572
168.103
95.8576
75.572
347.595
382.544
264.129
174.008
110.171
64.9612
35.5614
86.7336
71.8895
80.502
119.096
294.962
116.271
95.6538
101.511
284.61
87.9785
366.597
102.486
102.403
108.265
177.605
280.593
164.631
460.652
117.071
90.4216
123.452
111.969
98.7841
103.544
332.135
167.76
81.2942
177.672
191.287
157.274
154.399
176.954
216.724
122.408
252.195
226.633
206.911
144.679
149.349
203.094
211.903
597.796
129.179
127.918
129.66
257.192
75.0332
181.34
577.41
257.231
90.7431
143.282
117.43
146.767
403.724
187.422
232.37
219.425
147.225
358.621
275.191
131.941
79.485
106.689
200.271
182.148
136.274
107.637
194.364
68.7043
101.286
91.8563
83.8571
187.401
266.233
124.229
122.464
81.5765
68.2025
140.592
195.086
134.575
69.7862
89.6875
120.323
59.1755
93.84
115.529
129.623
60.9523
52.6261
258.784
262.757
1738.74
308.212
252.311
150.435
166.352
172.169
166.732
243.771
282.649
201.113
162.152
353.583
131.964
149.791
165.981
89.0794
78.8436
153.39
75.6241
82.1216
84.5128
67.1034
186.219
236.334
143.181
128.474
127.947
114.858
107.526
252.539
121.336
121.268
113.348
47.1173
96.3956
73.9301
84.9505
67.9451
41.6661
59.7537
80.9667
48.1592
21.9044
236.361
246.57
119.98
130.478
150.253
481.943
115.437
313.271
201.072
193.23
238.593
270.443
133.16
137.129
157.786
117.516
272.942
290.735
189.699
194.593
171.118
284.854
120.144
129.818
868.894
111.482
202.269
135.413
105.246
112.023
69.2341
87.3277
82.4523
420.936
157.755
280.974
60.8929
36.8426
142.911
372.748
76.4698
52.7508
42.1955
63.6972
116.373
60.711
85.7903
72.5174
200.127
53.5497
62.0983
78.3034
93.1072
152.988
173.692
55.6443
29.1697
160.178
158.425
30.6427
205.799
217.394
269.57
138.052
141.251
368.503
221.55
202.121
422.982
409.835
190.16
230.176
370.835
209.952
130.907
134.886
59.86
80.2223
104.012
165.554
47.0159
207.84
242.216
285.203
399.769
370.427
248.368
215.378
141.151
35.5036
130.033
63.2792
161.367
143.606
39.6071
166.463
52.7948
86.4477
82.0447
130.593
81.176
70.8905
436.821
55.6276
42.6085
64.7673
255.178
98.3921
46.2511
43.9666
21.234
55.0923
21.6702
51.5601
24.284
24.1753
155.528
123.92
61.6617
105.422
128.239
144.875
100.166
164.51
166.258
495.301
346.62
110.892
141.304
120.72
123.254
146.8
221.848
183.855
103.133
143.071
92.2426
546.126
129.154
111.659
246.018
109.681
586.681
127.62
159.347
110.345
106.533
78.5652
121.691
100.662
360.159
103.015
207.431
131.355
121.705
347.887
124.114
127.319
65.0896
80.6202
91.7326
45.5203
60.468
46.1446
146.454
72.0962
65.1865
78.7999
68.6393
79.6372
42.8398
125.649
93.1546
49.0191
67.1094
73.2182
18.6266
27.9333
185.17
85.6155
67.9639
199.352
194.357
187.896
192.955
211.007
197.227
143.604
287.233
212.046
342.537
125.155
149.716
137.927
164.51
556.799
161.437
129.77
120.149
169.885
145.058
237.694
313.612
125.92
158.195
247.862
217.612
431.973
140.406
282.653
212.359
121.52
242.097
178.112
120.074
161.596
132.668
207.261
161.903
130.375
151.527
195.831
381.781
189.1
83.897
200.844
72.2363
194.257
199.897
183.82
197.616
94.7365
130.771
179.887
250.751
189.871
204.211
211.762
208.166
174.541
173.379
64.4193
126.118
194.601
230.976
153.341
518.093
183.131
225.653
216.726
235.657
200.813
76.7586
70.7802
146.845
222.566
79.8228
230.055
163.574
211.312
163.492
194.553
199.413
186.27
41.3962
74.5726
170.874
233.667
69.5509
150.278
124.613
176.429
148.066
192.617
301.755
206.765
482.419
309.398
108.055
109.309
102.766
147.778
127.191
536.589
490.815
116.247
174.325
162.594
130.617
278.976
90.7639
210.911
102.101
337.504
93.3699
132.3
96.2835
248.288
104.812
584.539
109.237
109.547
378.215
109.133
84.3438
49.3216
101.443
41.1163
113.113
112.646
103.598
494.059
161.316
151.218
107.994
110.712
104.772
110.484
126.52
126.11
106.102
497.991
86.829
336.953
106.7
269.184
91.0585
97.544
87.1499
143.018
107.011
89.5387
229.323
78.9914
1041.27
287.479
147.828
301.065
115.76
136.116
130.265
1386.9
393.35
125.548
108.074
132.975
405.267
154.818
307.31
127.039
116.296
100.928
120.798
129.4
116.178
110.897
128.837
97.2554
127.163
120.419
128.098
119.853
125.733
108.042
121.666
116.752
120.015
98.3141
121.65
98.3889
100.105
105.336
103.801
96.3945
101.025
117.786
116.903
94.5471
110.626
132.167
108.467
118.812
97.1759
98.5215
98.3793
90.0085
431.508
406.035
458.767
324.496
356.155
423.007
226.178
435.701
270.21
321.989
183.83
179.501
622.599
146.469
321.404
179.637
186.109
134.122
214.188
115.047
196.762
195.122
302.312
132.406
140.014
231.353
321.73
197.823
196.198
205.223
258.316
123.572
221.94
422.839
329.1
217.724
172.741
170.374
166.799
221.655
136.053
165.734
135.135
187.169
128.095
114.299
131.137
140.021
195.721
87.2209
275.796
147.875
142.359
162.13
205.314
129.531
146.427
126.638
551.933
129.276
193.636
133.23
274.821
70.6012
191.042
102.364
111.741
106.09
92.5854
54.3896
89.6443
97.1295
226.953
115.415
131.192
191.483
111.903
129.354
146.649
129.648
99.9299
117.27
110.629
93.831
103.117
102.711
137.848
89.8223
104.171
120.872
108.295
134.343
117.881
140.972
146.8
130.072
118.923
521.325
123.022
124.42
133.761
614.356
136.495
159.12
189.745
323.456
300.712
271.939
110.343
166.515
223.269
145.672
152.5
240.136
117.175
223.131
150.039
250.001
186.13
99.3997
137.132
131.774
311.528
90.3205
133.449
142.381
72.8174
308.034
164.125
151.726
129.47
128.669
97.1748
142.263
895.58
172.31
312.858
145.338
840.234
146.3
285.618
137.825
74.736
148.77
121.718
120.931
597.359
284.062
132.023
135.659
78.3449
477.17
142.582
125.501
195.138
162.926
110.478
142.392
420.871
204.091
109.618
109.988
214.145
116.935
139.146
518.22
113.575
147.538
222.552
114.972
121.979
447.67
106.534
137.874
230.612
111.303
201.154
132.279
489.167
119.805
96.2257
209.655
109.37
128.23
232.903
199.792
106.534
103.962
364.014
103.76
161.467
216.174
193.819
356.951
164.81
106.904
102.555
200.488
134.022
196.474
91.2298
372.87
108.879
823.054
150.681
784.472
356.259
145.103
149.945
467.323
351.703
192.023
331.581
239.91
146.355
133.142
106.28
469.886
84.6319
177.201
163.503
141.246
317.622
142.587
113.183
97.7502
169.47
168.488
141.726
566.713
427.244
327.316
268.137
201
417.183
1027.64
275.935
324.35
337.388
117.245
390.652
263.632
224.92
327.156
250.468
120.296
228.012
249.566
516.153
141.109
242.742
209.23
243.445
153.752
202.414
108.043
131.028
379.824
282.403
139.682
104.058
383.797
102.444
156.437
197.382
161.958
143.124
104.713
186.552
109.109
414.422
139.127
201.043
143.202
109.042
190.807
103.009
281.799
127.342
174.657
145.125
104.799
172.876
274.278
117.258
276.107
243.916
113.128
284.754
302.846
130.794
263.89
126.14
424.746
333.775
266.114
218.213
115.038
334.296
111.596
434.289
366.58
455.95
295.503
183.897
377.957
141.614
258.601
157.567
134.75
199.504
190.315
369.379
133.554
131.375
146.51
192.69
225.735
259.589
419.016
483.886
165.316
190.113
215.999
129.541
190.827
113.804
76.4386
146.045
107.608
106.65
112.35
102.763
134.429
126.745
119.388
225.32
197.081
116.472
150.437
192.379
114.875
129.51
112.921
232.974
111.335
148.285
160.493
110.479
122.941
121.143
210.522
120.207
112.305
174.712
119.412
134.889
159.793
112.637
126.495
107.626
152.976
121.461
114.87
137.784
102.132
112.188
121.601
143.508
116.996
113.104
107.755
102.004
120.749
109
134.872
202.899
359.694
294.262
232.24
213.01
1890.07
323.318
226.685
246.81
122.639
226.228
186.161
170.658
205.373
228.93
130.784
291.709
189.684
208.403
358.721
348.206
241.304
222.874
139.931
197.407
174.508
130.876
209.071
175.047
123.842
212.9
184.913
175.94
152.582
122.837
346.617
188.956
222.028
221.61
357.612
267.204
244
336.487
289.11
254.405
200.732
275.159
216.153
198.786
189.841
181.065
200.748
179.071
171.147
216.522
178.121
171.538
121.586
186.653
172.719
152.205
378.315
1148.01
181.754
166.541
131.625
199.915
184.313
193.413
193.858
174.217
173.557
199.158
170.532
501.141
99.3103
125.588
302.505
376.549
102.851
122.365
257.333
98.0635
143.678
280.103
136.609
151.897
98.8528
255.951
98.8947
311.443
157.336
279.775
150.966
103.975
259.043
98.5366
165.432
100.066
160.507
99.6165
122.536
255.672
123.466
134.664
282.585
162.114
113.245
135.517
157.148
108.837
145.487
173.378
181.65
145.15
115.833
158.309
121.772
277.311
143.372
180.805
145.855
112.978
167.208
103.763
183.077
97.5456
159.78
115.462
113.056
167.962
475.216
199.081
438.959
231.331
254.335
496.593
169.372
190.498
198.614
210.998
380.453
161.583
116.395
174.267
157.356
229.239
194.582
514.265
247.588
383.681
155.661
141.132
119.219
159.886
204.875
192.908
418.713
221.191
223.302
477.973
219.686
245.791
255.86
147.179
197.522
312.371
211.921
161.935
126.218
88.4413
104.884
169.994
87.4921
162.353
161.71
130.015
170.675
163.05
129.247
206.121
126.917
154.261
98.1491
106.166
88.4363
136.615
161.771
142.741
299.786
161.896
173.321
135.37
202.29
135.746
215.073
168.189
201.571
445.022
2211.64
408.029
324.869
408.257
441.992
315.907
409.606
408.306
380.814
317.411
232.821
803.373
305.427
924.361
409.706
188.04
275.42
322.796
234.364
180.617
275.739
878.691
94.4079
234.155
133.895
183.599
119.64
161.517
113.43
84.9895
148.602
97.6448
246.947
84.3404
275.058
104.337
90.6859
321.184
100.534
255.208
120.97
280.386
87.7028
91.8243
70.2496
164.264
99.9348
145.075
103.264
61.0755
79.0616
105.083
248.041
259.363
274.91
101.537
80.9704
92.864
129.456
100.969
251.95
104.869
85.5662
248.677
98.1862
126.631
133.705
251.61
109.276
119.489
251.893
91.994
112.355
254.074
258.041
85.2323
115.999
254.906
95.3356
253.703
122.332
255.392
95.3202
118.813
295.25
94.8404
111.51
261.594
264.464
100.689
114.999
292.9
206.351
104.045
201.612
176.242
201.978
206.261
197.125
205.809
102.145
175.364
201.013
205.638
197.484
201.115
206.238
204.721
145.978
152.577
205.762
205.123
174.949
141.89
346.202
205.57
204.233
136.627
204.877
623.45
205.691
124.159
172.017
201.443
205.861
165.648
202.429
204.378
100.497
135.895
338.748
205.337
140.291
286.737
377.584
336.543
205.706
204.248
149.35
134.219
204.152
204.838
152.52
572.739
353.891
206.229
88.6495
185.617
165.408
197.833
204.074
194.808
204.743
103.248
201.08
176.13
195.612
201.191
204.397
206.134
199.897
173.339
158.711
183.463
197.897
201.22
230.19
232.923
235.671
74.3791
156.914
155.308
232.806
179.137
83.6283
206.676
202.068
197.833