/*--------------------------------*- C++ -*----------------------------------*\
  =========                 |
  \\      /  F ield         | OpenFOAM: The Open Source CFD Toolbox
   \\    /   O peration     | Website:  https://openfoam.org
    \\  /    A nd           | Version:  10
     \\/     M anipulation  |
\*---------------------------------------------------------------------------*/
FoamFile
{
    format      ascii;
    class       volScalarField;
    location    "0.05";
    object      p;
}
// * * * * * * * * * * * * * * * * * * * * * * * * * * * * * * * * * * * * * //

dimensions      [0 2 -2 0 0 0 0];

internalField   nonuniform List<scalar> 
114940
(
108.07
109.327
108.13
109.129
108.354
109.063
107.965
109.528
107.492
108.67
108.388
109.007
108.097
109.497
107.714
108.611
108.381
108.977
108.145
109.36
107.831
108.712
108.283
108.938
108.186
109.287
107.914
108.602
108.442
108.783
108.266
109.248
108.074
109.976
107.042
107.76
108.071
107.654
110.01
107.022
107.786
108.061
107.88
109.571
107.356
107.93
108.058
107.978
109.246
107.644
107.977
108.092
108.175
108.13
108.121
107.713
108.697
108.144
108.206
108.28
108.182
108.293
108.131
109.543
108.601
108.197
108.348
108.245
108.313
108.24
109.364
108.465
108.56
108.237
108.275
108.341
108.035
109.508
107.556
108.538
108.322
109.019
108.051
109.486
107.573
108.647
108.44
108.79
108.216
109.242
107.943
108.26
109.018
107.983
109.432
107.843
109.792
107.186
108.202
108.522
107.955
109.738
107.179
108.186
108.158
108.509
108.055
109.263
107.544
108.122
108.071
108.509
108.369
108.104
107.596
108.354
108.452
108.454
108.422
108.364
108.132
109.672
108.079
108.4
108.32
108.413
108.405
108.391
108.313
108.058
107.157
108.526
108.26
108.457
108.344
108.355
108.361
108.309
108.093
107.396
108.636
108.28
108.447
108.243
108.363
108.014
108.267
108.393
109.844
108.654
108.124
108.235
108.232
108.135
108.393
108.591
109.825
108.517
108.655
108.306
108.331
108.478
108.498
109.399
108.438
108.727
108.241
108.569
108.04
109.776
108.341
109.024
107.884
109.788
107.055
108.579
108.497
108.04
109.572
107.141
108.565
108.522
108.306
108.442
108.059
107.331
108.715
108.663
108.538
108.586
108.488
108.368
108.057
109.891
108.556
108.667
108.566
108.517
108.641
108.312
108.459
108.103
106.891
108.41
108.595
108.645
108.589
108.537
108.741
108.556
108.463
107.241
108.48
108.529
108.713
108.756
108.614
108.668
108.409
108.75
108.458
110.07
108.464
108.604
108.759
108.615
108.305
108.215
108.415
108.716
108.235
108.542
108.51
108.488
108.662
108.246
108.3
108.737
108.437
108.762
108.28
108.584
108.683
108.466
108.896
108.478
108.729
108.281
108.558
108.66
108.59
109.418
108.63
108.505
108.88
108.468
107.983
109.727
107.14
108.749
108.553
108.146
109.562
107.17
108.618
108.298
108.519
108.111
107.369
108.582
108.329
108.493
108.016
109.936
108.641
108.777
108.675
108.751
108.36
108.477
108.171
106.956
108.426
108.646
108.817
108.657
108.409
108.766
108.497
108.697
107.252
108.415
108.564
108.767
108.843
108.691
109.086
108.991
108.629
108.673
110.264
108.464
108.645
108.856
108.8
108.945
108.608
108.97
108.916
108.494
108.563
108.623
108.62
108.913
109.007
108.818
109.369
109.514
108.793
108.462
108.576
108.755
108.825
108.941
109.104
108.676
108.434
108.537
108.681
108.778
109.449
108.604
108.528
108.858
108.498
107.793
110.036
106.879
108.635
108.535
107.856
109.915
106.926
108.639
108.555
108.139
109.411
107.271
108.61
108.737
108.523
108.345
108.626
108.218
107.441
110.276
108.576
108.611
108.579
108.511
108.367
108.74
108.136
109.79
106.924
108.397
108.504
108.729
108.648
108.573
108.455
108.641
108.277
106.987
108.717
108.502
108.709
108.718
108.616
108.717
108.478
108.926
108.401
110.087
108.696
108.454
108.652
108.756
108.795
108.738
108.822
108.71
109.883
108.36
108.679
108.638
108.769
108.812
108.852
108.819
108.837
108.711
108.485
108.677
108.525
108.853
108.711
109.521
108.771
108.355
108.81
107.929
108.841
108.304
109.074
108.345
108.563
108.586
108.405
107.654
108.479
108.553
108.511
107.889
108.504
108.532
108.402
108.418
108.126
109.383
107.446
110.356
108.243
108.306
108.369
108.286
108.423
108.336
108.38
107.651
110.012
107.06
108.528
108.701
108.323
108.488
108.339
108.602
108.138
109.727
106.888
108.91
108.34
108.551
108.392
108.549
108.344
108.474
107.313
110.57
108.561
108.44
108.508
108.548
108.395
108.825
107.361
110.382
108.354
108.694
108.55
108.573
108.392
108.724
108.438
109.841
108.824
108.282
108.902
107.873
107.901
109.487
108.392
108.366
109.097
107.384
108.397
108.065
109.461
107.554
108.336
108.354
108.627
108.22
109.316
107.633
109.954
108.632
108.4
108.837
108.211
109.257
107.774
109.893
107.207
110.496
106.609
108.079
109.232
107.832
109.714
107.379
110.226
106.873
108.175
109.098
107.956
109.603
107.519
110.217
107.013
108.974
108.06
109.506
107.652
110.053
107.283
109.262
107.788
109.807
107.386
107.779
109.775
108.992
107.981
108.242
109
108.023
108.738
108.355
108.916
108.072
108.617
108.553
108.472
108.457
108.576
108.623
108.106
108.613
108.562
108.466
108.624
108.545
108.612
107.841
108.624
108.686
108.451
108.541
108.434
108.204
107.871
108.129
108.601
108.394
108.584
108.35
108.65
108.725
108.523
108.608
108.568
108.641
108.61
108.613
108.621
108.546
108.72
108.535
108.626
108.523
108.552
108.579
108.566
108.642
108.55
108.64
108.599
108.546
108.414
108.613
108.595
108.546
108.576
108.506
108.486
108.623
108.638
108.689
108.555
108.582
108.558
108.819
108.802
108.562
108.531
108.57
108.568
108.604
108.494
108.579
108.566
108.557
108.63
108.56
108.248
108.504
108.807
108.714
108.576
108.483
108.583
108.505
108.549
108.773
108.744
108.678
108.512
108.504
108.579
108.635
108.632
108.299
108.725
108.575
108.667
108.363
108.645
109.092
108.755
108.492
108.718
109.133
108.754
108.909
108.656
108.661
108.67
108.758
108.539
108.621
108.578
108.646
108.606
108.665
108.6
108.547
108.631
108.523
108.639
108.57
108.683
108.581
108.599
108.623
108.649
108.602
108.674
108.583
108.65
108.642
108.598
108.62
108.586
108.524
108.826
108.69
108.708
108.572
108.603
108.512
108.55
108.704
108.576
108.55
108.568
108.497
108.644
108.628
108.356
108.455
108.573
108.339
108.587
108.644
108.482
109.047
108.541
108.596
108.531
108.622
108.811
108.909
108.581
108.652
108.623
108.638
108.538
108.644
108.616
108.508
108.641
108.592
108.597
108.511
108.683
108.584
108.544
108.488
108.502
108.573
108.205
108.305
108.254
108.592
108.383
108.615
108.488
108.354
108.396
108.308
108.571
108.534
108.557
108.464
108.352
108.351
108.296
108.567
108.496
108.587
108.471
108.534
108.581
108.54
108.627
108.522
108.516
108.724
108.47
108.807
108.486
108.557
108.497
108.546
108.52
108.588
108.542
108.532
108.567
108.588
108.474
108.648
108.544
108.525
108.694
108.587
108.431
108.659
108.535
108.179
108.452
108.816
108.673
108.512
108.558
108.591
108.562
108.643
108.684
108.249
108.768
108.857
108.697
108.666
108.742
108.765
108.627
109.093
108.747
108.673
108.428
108.633
109.096
108.598
108.655
108.915
108.28
108.911
108.898
108.789
108.668
108.712
108.746
108.109
108.67
108.942
108.637
108.879
108.721
108.574
108.542
108.592
108.636
108.527
108.55
108.616
108.603
108.533
108.679
108.572
108.562
108.623
108.612
108.604
108.71
108.621
108.649
108.572
108.786
108.326
108.613
108.682
108.436
108.551
108.626
108.439
108.724
108.584
108.551
108.5
108.551
108.458
108.604
108.693
108.638
108.486
108.654
108.491
108.608
108.552
108.739
108.648
108.567
108.525
108.541
108.459
108.42
108.607
107.092
108.553
108.296
108.628
108.617
108.564
108.547
108.639
108.58
108.565
108.527
108.622
108.325
108.738
108.693
108.5
108.466
108.523
108.519
108.471
108.689
108.874
108.632
108.586
108.675
108.63
109.057
108.754
108.645
108.62
108.669
108.69
109.078
108.645
108.685
108.567
108.612
108.54
108.538
108.547
108.74
108.522
108.889
108.612
108.656
108.762
108.799
108.595
108.767
108.647
108.703
108.65
108.723
108.579
108.834
108.725
108.647
108.553
108.677
108.525
108.628
108.55
108.5
108.721
108.573
108.559
108.652
108.501
108.534
108.609
108.704
108.426
108.477
108.554
108.125
108.687
108.545
108.549
108.519
108.524
108.484
107.791
108.606
108.597
108.493
108.493
108.504
108.344
108.418
108.325
108.62
108.582
108.492
108.453
108.32
108.385
108.272
108.549
108.541
108.538
108.538
108.532
108.572
108.575
108.568
108.507
108.535
108.548
108.622
108.6
108.604
108.593
108.558
108.587
108.571
108.545
108.598
108.562
108.571
108.557
108.601
108.542
108.598
108.682
108.605
108.569
108.598
108.598
108.526
108.583
108.602
108.59
108.586
108.677
108.557
108.663
108.634
108.682
108.753
108.69
108.61
108.703
108.74
108.761
108.638
108.527
108.526
108.506
108.558
108.582
108.406
108.579
108.644
108.553
108.494
108.635
108.491
108.609
108.614
108.598
108.511
108.587
108.61
108.602
108.724
108.644
108.719
108.635
108.673
108.614
108.74
108.715
108.738
108.791
108.735
108.738
108.538
108.546
108.538
108.531
108.45
108.598
108.52
108.698
108.788
108.801
108.801
108.807
108.633
108.83
108.594
108.668
108.755
108.723
108.493
108.553
108.501
108.518
108.511
108.465
108.544
108.423
108.481
108.434
108.595
108.49
108.581
108.568
108.588
108.571
108.614
108.571
108.651
108.712
108.478
108.581
108.621
108.608
108.384
108.556
108.647
108.612
108.664
108.588
108.665
108.684
108.768
108.63
108.726
108.619
108.693
108.637
108.397
108.558
108.525
108.376
108.473
108.607
108.644
108.666
108.818
108.792
108.713
108.648
108.538
108.659
108.644
108.719
108.726
108.262
108.685
108.71
108.49
108.544
108.525
108.769
108.572
108.592
108.511
108.514
108.629
108.424
108.646
108.428
108.591
108.559
108.469
108.438
108.629
108.631
108.336
108.492
108.657
108.619
108.672
108.662
108.69
108.462
108.788
108.731
108.493
108.481
108.599
108.627
108.661
108.535
108.536
108.553
108.551
108.74
108.59
108.745
108.552
108.549
108.679
108.456
108.705
108.465
108.689
108.592
108.492
108.633
108.707
108.963
108.679
108.841
108.507
108.663
108.731
108.794
108.756
108.827
108.502
108.59
109.086
108.837
108.513
108.735
108.858
108.806
108.704
108.789
108.785
108.685
108.824
108.807
108.64
108.693
108.687
108.698
108.739
108.825
108.654
108.643
108.632
108.716
108.828
108.728
108.718
108.573
108.635
108.598
108.636
108.688
108.686
108.675
108.625
108.682
108.671
108.56
108.637
108.521
108.635
108.528
108.595
108.522
108.573
108.576
108.562
108.632
108.579
108.552
108.577
108.525
108.55
108.647
108.648
108.625
108.612
108.632
108.605
108.629
108.628
108.624
108.515
108.617
108.632
108.52
108.595
108.714
108.558
108.55
108.69
108.619
108.674
108.668
108.622
108.64
108.653
108.62
108.612
108.642
108.666
108.499
108.55
108.644
108.669
108.519
108.618
108.688
108.562
108.479
108.589
108.562
108.672
108.551
108.666
108.702
108.733
108.368
108.712
108.611
108.606
108.565
108.907
108.666
108.525
108.651
108.338
108.568
108.618
108.608
108.661
108.633
108.627
108.665
108.642
108.656
108.767
108.598
108.575
108.703
108.46
108.738
108.746
108.566
108.482
108.557
108.525
108.586
108.602
108.392
107.74
108.135
108.719
108.257
108.656
108.462
108.448
108.616
108.161
108.507
108.305
108.625
108.503
108.432
108.722
108.454
108.517
108.667
108.427
108.53
108.482
108.968
108.874
108.7
108.286
108.498
108.757
108.741
108.614
108.189
108.503
108.889
108.469
108.538
108.755
108.385
108.569
108.551
108.522
108.679
108.819
108.619
108.795
108.618
108.66
108.801
108.647
108.543
108.608
108.615
108.696
108.667
108.571
108.663
108.599
108.613
108.6
108.549
108.577
108.559
108.565
108.609
108.545
108.534
108.513
108.593
108.56
108.533
108.675
108.653
108.552
108.575
108.555
108.563
108.597
108.554
108.505
108.557
108.637
108.52
108.565
108.57
108.576
108.559
108.547
108.499
108.338
108.11
108.257
108.614
108.558
108.597
108.469
108.513
108.354
108.682
108.576
108.404
108.573
108.581
108.501
108.422
108.635
108.553
108.585
108.569
108.62
108.387
108.347
108.35
108.196
108.551
108.63
108.28
108.338
108.247
108.604
108.467
108.646
108.504
108.591
108.384
108.494
108.742
108.646
108.651
108.668
108.302
108.314
108.343
108.621
108.488
108.573
108.666
108.543
108.37
108.652
108.632
108.654
108.405
108.239
108.495
108.518
108.564
108.55
108.484
108.635
108.535
108.328
108.376
108.684
108.56
108.422
108.585
108.667
108.727
108.481
108.601
108.705
108.604
108.498
108.523
108.635
108.501
108.461
108.79
108.428
108.824
108.651
108.402
108.277
108.862
108.624
108.535
108.801
108.498
108.62
108.467
108.537
108.849
108.533
108.611
108.531
108.692
108.588
108.559
108.769
108.654
108.16
108.516
108.922
108.859
108.52
108.498
108.559
108.795
108.559
108.579
108.549
108.543
108.891
108.619
108.758
108.607
108.773
108.551
108.746
108.814
108.717
108.498
108.373
108.778
108.659
108.623
108.493
108.883
108.125
108.842
108.648
108.891
108.945
108.869
108.587
108.624
108.65
108.616
108.596
108.532
108.698
108.383
108.425
108.644
108.387
108.522
108.472
108.37
108.512
108.493
108.344
108.601
108.597
108.388
108.332
108.812
108.774
108.699
108.564
108.595
108.817
108.464
108.508
108.438
108.52
108.21
108.663
108.519
108.513
108.478
108.528
108.236
108.452
108.076
108.737
108.467
108.616
108.778
108.666
108.766
108.635
108.697
108.384
108.587
108.639
108.627
108.739
108.513
108.521
108.719
108.472
108.061
108.603
108.895
108.378
108.564
108.878
108.608
108.83
108.602
108.982
108.842
108.907
108.764
108.702
108.871
108.676
108.716
108.521
108.649
108.593
108.537
108.5
108.743
108.93
108.654
108.638
108.899
108.684
108.772
108.861
108.966
108.83
108.663
108.767
108.674
108.65
108.618
108.572
108.656
108.523
108.303
108.676
108.21
108.429
108.534
108.571
108.672
108.55
108.543
108.569
108.55
108.52
108.637
108.524
108.195
108.355
108.079
108.268
108.561
108.816
108.604
108.526
108.502
108.368
108.627
108.496
108.618
108.528
108.137
108.604
107.961
108.154
108.55
108.573
108.444
108.499
108.322
108.521
108.344
108.444
108.465
108.6
108.449
108.193
108.299
108.302
108.554
108.622
108.531
108.472
108.294
108.364
108.29
108.489
108.534
108.634
108.433
108.222
108.356
108.286
108.704
108.692
108.68
108.523
108.367
108.465
108.382
108.566
108.592
108.576
108.426
108.551
108.29
108.646
108.567
108.534
108.528
108.347
108.17
108.566
108.517
108.526
108.57
108.556
108.567
108.528
108.402
108.619
108.542
108.646
108.567
108.567
108.511
108.574
108.597
108.616
108.586
108.549
108.566
108.586
108.673
108.536
108.542
108.502
108.559
108.593
108.589
108.632
108.568
108.57
108.605
108.569
108.619
108.608
108.643
108.589
108.636
108.618
108.528
108.67
108.55
108.574
108.56
108.642
108.521
108.575
108.61
108.618
108.548
108.635
108.54
108.57
108.553
108.555
108.625
108.635
109.02
108.933
108.986
108.554
108.513
108.533
108.574
108.565
108.429
108.573
108.541
108.493
108.531
108.484
108.552
108.619
108.57
108.603
108.625
108.588
108.551
108.603
108.619
108.607
108.558
108.567
108.471
108.592
108.494
108.586
108.541
108.777
108.672
108.644
108.578
108.763
108.726
108.615
108.637
108.633
108.687
108.621
108.632
108.736
108.838
108.897
108.793
108.931
108.747
108.822
108.653
108.729
108.527
108.798
108.519
108.826
108.547
108.655
108.677
108.768
108.74
108.737
108.42
108.515
108.576
108.424
108.553
108.638
108.511
108.608
108.584
108.515
108.626
108.512
108.667
108.627
108.562
108.637
108.509
108.554
108.599
108.606
108.637
108.631
108.563
108.394
108.675
108.409
108.462
108.715
108.803
108.779
108.778
108.688
108.778
108.657
108.657
108.846
108.609
108.848
108.576
108.722
108.732
108.768
108.724
108.758
108.675
108.531
108.432
108.615
108.612
108.425
108.624
108.649
108.519
108.624
108.791
108.019
108.607
108.731
108.256
108.546
108.446
108.663
108.665
108.463
108.73
108.768
108.942
108.717
108.334
108.792
108.65
109.026
108.923
109.012
108.874
109.048
109.026
108.861
108.986
108.885
108.884
108.659
108.777
108.75
108.914
108.792
108.71
108.63
108.592
108.746
108.766
108.658
108.714
108.608
108.583
108.543
108.629
108.604
108.641
108.594
108.474
108.595
108.606
108.666
108.673
108.566
108.662
108.584
108.598
108.545
108.604
108.664
108.647
108.499
108.609
108.594
108.595
108.622
108.663
108.606
108.61
108.625
108.665
108.601
108.666
108.558
108.657
108.587
108.657
108.552
108.557
108.613
108.557
108.66
108.565
108.65
108.607
108.542
108.646
108.557
108.623
108.552
108.624
108.566
108.538
108.656
108.631
108.583
108.645
108.557
108.55
108.884
108.383
108.666
108.546
108.459
108.58
108.575
108.559
108.413
108.347
108.4
108.664
108.568
108.52
108.637
108.433
108.45
108.604
108.541
108.523
108.544
108.648
108.616
108.589
108.592
108.679
108.673
108.583
108.558
108.737
108.433
108.689
108.588
108.713
108.564
108.388
108.541
108.677
108.54
108.622
108.675
108.901
108.537
108.733
108.534
108.539
108.657
108.469
108.607
108.463
108.6
108.46
108.62
108.602
108.558
108.54
108.626
108.572
108.797
108.612
108.641
108.731
108.589
108.571
108.257
108.557
108.744
108.659
108.738
108.635
108.623
108.62
108.577
108.535
108.693
108.577
108.57
108.405
108.545
108.593
108.539
108.537
108.574
108.526
108.711
108.548
108.577
108.373
108.422
108.436
108.481
108.173
108.515
108.65
108.586
108.536
108.466
108.722
108.527
108.506
108.757
108.545
108.495
108.708
108.496
108.523
108.539
108.54
108.563
108.362
108.508
108.606
108.361
108.489
108.617
108.659
108.641
108.342
108.665
108.637
107.979
108.159
108.736
108.101
108.534
108.621
108.217
108.582
108.621
108.297
108.456
108.603
108.6
108.402
108.514
108.649
108.513
108.492
108.461
108.622
108.303
108.594
108.563
108.365
108.48
108.731
108.781
108.662
108.656
108.619
108.8
108.725
108.594
108.969
108.857
108.957
108.9
108.949
108.521
108.692
108.467
108.49
108.59
108.732
108.531
108.512
108.611
108.647
108.398
108.599
108.346
108.408
108.663
108.717
108.846
108.732
108.598
108.705
108.684
108.724
108.829
108.805
108.89
108.828
108.759
108.654
108.363
108.818
108.665
108.457
108.59
108.474
108.562
108.601
108.845
108.484
108.653
108.659
108.754
108.471
108.602
108.839
108.634
108.479
108.78
108.63
108.471
108.663
108.619
108.562
108.588
108.663
108.693
108.595
108.544
108.58
108.562
108.568
108.549
108.583
108.614
108.579
108.588
108.599
108.543
108.54
108.531
108.581
108.564
108.59
108.529
108.63
108.539
108.587
108.511
108.554
108.42
108.573
108.539
108.668
108.506
108.545
108.695
108.551
108.541
108.67
108.544
108.466
108.523
108.544
108.565
108.521
108.532
108.544
108.714
108.492
108.509
108.563
108.541
108.444
108.524
108.594
108.555
108.415
108.488
108.482
108.547
107.845
108.505
108.506
108.461
108.467
108.25
108.52
108.529
108.477
108.543
108.484
108.479
108.496
108.664
108.471
108.561
108.495
108.637
108.767
108.459
108.765
108.466
108.534
108.481
108.492
108.467
108.549
108.293
108.438
108.525
108.482
108.483
108.642
108.463
108.665
108.464
108.41
108.462
107.933
108.437
108.499
108.487
108.671
108.673
108.5
108.457
108.561
108.53
108.522
108.546
108.48
108.432
108.521
108.813
108.503
108.604
108.524
108.84
108.427
108.532
108.534
108.76
108.577
108.828
108.547
108.497
108.625
108.609
108.688
108.783
108.586
108.588
108.487
108.627
108.664
108.68
108.76
108.649
108.609
108.635
108.665
108.737
108.744
108.707
108.545
108.596
108.694
108.714
108.747
108.746
108.618
108.636
108.624
108.663
108.433
108.607
108.648
108.546
108.663
108.669
108.422
108.634
108.786
108.686
108.688
108.461
108.462
108.731
108.786
108.525
108.643
108.793
108.792
108.667
108.604
108.801
108.541
108.779
108.677
108.644
108.718
108.891
108.776
108.695
108.735
108.728
108.667
108.742
108.767
108.775
108.814
108.773
108.797
108.768
108.812
108.843
108.856
108.82
108.51
108.559
108.8
108.797
108.866
108.845
108.84
108.855
108.851
108.849
108.468
108.636
108.694
108.595
108.542
108.598
108.424
108.683
108.576
108.881
108.895
108.589
108.697
108.672
108.558
108.576
108.581
108.571
108.551
108.883
108.642
108.89
108.607
108.59
108.642
108.693
108.593
108.59
108.704
108.551
108.612
108.676
108.883
108.798
108.676
108.923
108.764
108.836
108.738
108.757
108.642
108.595
108.884
108.669
108.663
108.741
108.722
108.559
108.523
108.845
108.731
108.789
108.644
108.642
108.598
108.574
108.609
108.61
108.616
108.496
108.584
108.566
108.586
108.487
108.574
108.582
108.589
108.524
108.579
108.612
108.664
108.62
108.589
108.581
108.59
108.562
108.469
108.54
108.575
108.573
108.711
108.584
108.586
108.582
108.527
108.63
108.461
108.513
108.545
108.573
108.742
108.483
108.643
108.302
108.41
108.468
108.58
108.451
108.439
108.373
108.421
108.504
108.462
108.508
108.305
108.508
108.369
106.779
108.311
108.564
108.483
108.729
108.472
108.675
108.421
108.304
108.364
108.474
107.629
108.249
108.623
108.629
108.71
108.751
108.446
108.546
108.582
108.575
108.577
108.695
108.617
108.609
108.498
108.675
108.611
108.564
108.67
108.727
108.646
108.693
108.58
108.649
108.669
108.52
108.392
108.503
108.612
108.541
108.65
108.343
108.426
108.247
108.173
108.501
108.475
108.475
108.561
108.545
108.424
108.47
108.452
108.535
108.568
108.472
108.43
108.568
108.416
108.662
108.686
108.656
108.767
108.603
108.63
108.64
108.144
108.785
108.501
108.513
108.566
108.672
108.638
108.856
108.721
108.59
108.694
108.74
108.674
108.676
108.421
108.385
108.519
108.616
108.47
108.669
108.483
108.64
108.282
108.542
108.49
108.588
108.284
108.443
108.645
108.399
108.61
108.648
108.582
108.503
108.612
108.624
108.426
108.616
108.187
108.521
108.673
108.562
108.607
108.501
108.623
108.281
108.447
108.818
108.786
108.894
108.885
108.712
108.73
108.811
108.456
108.693
108.316
108.541
108.631
108.615
108.552
108.627
108.593
108.693
108.744
108.643
108.684
108.869
108.539
108.465
108.577
108.423
108.819
108.538
108.588
108.521
108.569
108.642
108.55
108.58
108.648
108.579
108.96
108.558
108.671
108.717
108.845
108.53
108.592
108.792
108.698
108.732
108.657
108.836
108.592
108.621
108.879
108.647
108.809
108.73
108.693
108.576
108.574
108.52
108.523
108.703
108.815
108.463
108.579
108.599
108.547
108.719
108.774
108.68
108.588
108.554
108.8
108.752
108.846
108.779
108.745
108.837
108.736
108.706
108.556
108.734
108.732
108.895
108.828
108.64
108.615
108.517
108.512
108.537
108.545
108.523
108.517
108.52
108.594
108.567
108.526
108.57
108.528
108.524
108.551
108.546
108.516
108.498
108.538
108.568
108.523
108.566
108.549
108.53
108.53
108.559
108.554
108.532
108.536
108.565
108.538
108.528
108.52
108.585
108.609
108.534
108.509
108.538
108.497
108.531
108.522
108.514
108.537
108.526
108.514
108.507
108.508
108.521
108.54
108.573
108.597
108.588
108.496
108.46
108.49
108.563
108.545
108.57
108.521
108.615
108.545
108.419
108.598
108.591
108.403
108.627
108.495
108.537
108.494
108.61
108.628
108.616
108.624
108.6
108.623
108.579
108.56
108.572
108.61
108.562
108.575
108.535
108.607
108.583
108.605
108.619
108.524
108.594
108.506
108.559
108.537
108.507
108.538
108.478
108.565
108.516
108.507
108.532
108.53
108.586
108.546
108.586
108.601
108.543
108.597
108.583
108.526
108.578
108.534
108.599
108.576
108.61
108.593
108.656
108.603
108.626
108.627
108.611
108.581
108.633
108.633
108.619
108.6
108.636
108.576
108.587
108.645
108.607
108.56
108.589
108.58
108.579
108.604
108.615
108.626
108.586
108.619
108.662
108.63
108.587
108.614
108.603
108.588
108.596
108.575
108.579
108.588
108.619
108.575
108.641
108.635
108.634
108.622
108.565
108.58
108.605
108.587
108.573
108.541
108.593
108.637
108.591
108.609
108.62
108.649
108.699
108.609
108.606
108.546
108.566
108.61
108.571
108.558
108.616
108.585
108.558
108.579
108.549
108.613
108.586
108.649
108.605
108.651
108.635
108.61
108.57
108.611
108.595
108.587
108.579
108.589
108.574
108.621
108.611
108.617
108.682
108.604
108.629
108.624
108.638
108.614
108.682
108.594
108.719
108.652
108.671
108.838
108.709
108.604
108.66
108.897
108.618
108.637
108.634
108.635
108.623
108.622
108.632
108.713
108.641
108.69
108.636
108.713
108.628
108.64
109
108.751
108.897
109.026
108.89
108.944
108.971
109.008
109.006
108.88
108.786
108.948
109.031
108.916
108.996
108.743
108.848
108.771
108.905
108.932
108.483
108.545
108.482
108.568
108.447
108.605
108.462
108.56
108.448
108.571
108.471
108.563
108.49
108.549
108.496
108.558
108.545
108.606
108.499
108.629
108.58
108.571
108.531
108.563
108.568
108.481
108.495
108.516
108.543
108.605
108.616
108.535
108.04
108.646
108.659
108.264
108.654
108.662
108.657
108.097
108.402
108.658
108.659
108.638
108.734
108.624
108.679
108.719
108.683
108.629
108.614
108.643
108.724
108.655
108.321
108.592
108.636
108.459
108.666
108.657
108.578
108.578
108.456
108.6
108.682
108.746
108.678
108.729
108.61
108.579
108.612
108.596
108.635
108.61
108.658
108.631
108.64
108.592
108.605
108.567
108.593
108.587
108.616
108.627
108.652
108.584
108.6
108.636
108.604
108.556
108.292
108.585
108.568
108.583
108.604
108.667
108.627
108.706
108.658
108.627
108.643
108.646
108.826
108.847
108.812
108.911
108.802
108.749
108.496
108.514
108.51
108.466
108.537
108.566
108.576
108.54
108.507
108.608
108.558
108.522
108.54
108.549
108.573
108.483
108.49
108.556
108.642
108.471
108.609
108.436
108.485
108.529
108.47
108.206
108.533
108.682
108.778
108.703
108.673
108.788
108.842
108.764
108.703
108.766
108.743
108.804
108.849
108.701
108.766
108.765
108.777
108.724
108.705
108.647
108.722
108.702
108.745
108.683
108.737
108.744
108.76
108.7
108.747
108.697
108.735
108.632
108.679
108.699
108.744
108.689
108.679
108.73
108.712
108.716
108.728
108.7
108.701
108.708
108.749
108.708
108.651
108.656
108.726
108.619
108.694
108.704
108.727
108.706
108.515
108.548
108.456
108.525
108.488
108.515
108.532
108.44
108.734
108.356
108.449
108.686
108.52
108.464
108.649
108.201
108.504
108.653
108.531
108.462
108.505
108.503
108.366
108.382
108.489
108.52
108.492
108.635
108.45
108.538
108.476
108.697
108.432
108.478
108.638
108.528
108.483
108.434
108.601
108.475
108.507
108.534
108.617
108.469
108.607
108.452
108.495
108.007
108.596
108.427
108.286
108.582
108.616
108.406
108.486
108.576
108.565
108.598
108.599
108.562
108.564
108.52
108.562
108.574
108.585
108.595
108.484
108.579
108.558
108.571
108.597
108.581
108.607
108.463
108.54
108.536
108.588
108.57
108.481
108.591
108.551
108.591
108.514
108.617
108.537
108.591
108.599
108.506
108.572
108.621
108.577
108.591
108.465
108.665
108.597
108.591
108.597
108.596
108.686
108.455
108.605
108.294
108.455
108.581
108.469
108.472
108.457
108.649
108.493
108.597
108.658
108.471
108.527
108.457
108.347
108.604
108.455
108.573
108.48
108.473
108.45
108.451
108.548
108.576
108.643
108.438
108.5
108.775
108.69
108.767
108.663
108.747
108.832
108.765
108.791
108.669
108.78
108.68
108.588
108.79
108.741
108.744
108.69
108.755
108.3
108.761
108.272
108.775
108.724
108.381
108.717
108.752
108.659
108.71
108.742
108.75
108.564
108.688
108.715
108.673
108.727
108.671
108.767
108.316
108.496
108.653
108.722
108.74
108.725
108.68
108.745
108.552
108.563
108.552
108.527
108.488
108.504
108.545
108.529
108.779
108.645
108.542
108.527
108.795
108.524
108.494
108.549
108.761
108.613
108.542
108.795
108.532
108.508
108.507
108.471
108.515
108.441
108.52
108.522
108.545
108.635
108.589
108.545
108.548
108.672
108.551
108.541
108.569
108.652
108.588
108.584
108.545
108.566
108.554
108.544
108.624
108.558
108.55
108.674
108.542
108.593
108.528
108.302
108.637
108.579
108.669
108.256
108.658
108.539
108.644
108.568
108.625
108.641
108.619
108.592
108.652
108.348
108.651
108.652
108.535
108.317
108.549
108.656
108.696
108.608
108.627
108.628
108.666
108.712
108.69
108.567
108.621
108.659
108.691
108.652
108.542
108.485
108.508
108.769
108.549
108.567
108.479
108.555
108.448
108.503
108.468
108.531
108.485
108.589
108.493
108.512
108.672
108.617
108.557
108.733
108.526
108.649
108.668
108.587
108.722
108.67
108.312
108.188
108.605
108.644
108.661
108.743
108.521
108.692
108.534
108.56
108.512
108.593
108.681
108.277
108.411
108.565
108.451
108.508
108.447
108.53
108.492
108.513
108.854
108.61
108.507
108.863
108.492
108.5
108.515
108.448
108.813
108.593
108.857
108.542
108.497
108.404
108.539
108.473
108.517
108.385
108.494
108.495
108.584
108.66
108.388
108.578
108.576
108.64
108.539
108.627
108.706
108.705
108.575
108.725
108.6
108.573
108.591
108.398
108.719
108.689
108.718
108.571
108.573
108.549
108.58
108.627
108.567
108.592
108.622
108.565
109.023
108.628
107.979
108.586
108.639
108.939
108.597
108.704
108.804
108.575
109.027
108.719
108.72
108.579
108.779
108.716
108.684
108.328
108.601
109.029
108.648
108.618
108.72
108.781
108.657
108.687
107.929
108.694
108.569
109.026
108.496
108.696
108.643
108.458
108.651
108.128
108.504
108.512
108.531
108.584
108.732
108.557
108.593
108.632
108.501
108.541
108.615
108.725
108.66
108.44
108.531
108.656
108.579
108.734
108.584
108.571
108.623
108.532
108.245
108.652
108.752
108.663
108.547
108.448
108.486
108.529
108.38
108.186
108.427
108.468
108.296
108.472
107.984
108.217
108.461
108.474
108.11
109.033
108.713
108.589
108.984
108.568
108.903
108.781
108.917
108.077
108.705
108.782
108.938
108.572
108.866
109.023
108.849
108.781
108.971
108.878
108.763
108.835
108.963
108.818
108.721
108.921
108.861
108.761
108.837
108.837
108.71
108.702
108.851
108.853
108.713
108.851
108.656
108.85
108.754
108.849
108.758
108.644
108.798
108.697
108.662
108.704
108.831
108.739
108.707
108.685
108.811
108.745
108.689
108.801
108.687
108.741
108.66
108.759
108.69
108.679
108.666
108.682
108.738
108.67
108.687
108.691
108.675
108.682
108.682
108.72
108.622
108.659
108.748
108.678
108.635
108.742
108.597
108.617
108.734
108.62
108.673
108.622
108.735
108.587
108.572
108.58
108.6
108.726
108.599
108.593
108.679
108.566
108.591
108.712
108.633
108.597
108.666
108.603
108.56
108.597
108.675
108.682
108.566
108.59
108.639
108.671
108.631
108.602
108.593
108.682
108.606
108.568
108.603
108.609
108.697
108.637
108.596
108.677
108.604
108.604
108.675
108.666
108.623
108.604
108.657
108.607
108.545
108.499
108.596
108.593
108.671
108.671
108.593
108.607
108.658
108.561
108.477
108.583
108.566
108.562
108.643
108.688
108.614
108.58
108.577
108.6
108.631
108.721
108.688
108.601
108.611
108.599
108.603
108.626
108.702
108.692
108.58
108.636
108.651
108.679
108.567
108.588
108.57
108.581
108.542
108.588
108.598