/*--------------------------------*- C++ -*----------------------------------*\
  =========                 |
  \\      /  F ield         | OpenFOAM: The Open Source CFD Toolbox
   \\    /   O peration     | Website:  https://openfoam.org
    \\  /    A nd           | Version:  10
     \\/     M anipulation  |
\*---------------------------------------------------------------------------*/
FoamFile
{
    format      ascii;
    class       volVectorField;
    location    "0.05";
    object      U;
}
// * * * * * * * * * * * * * * * * * * * * * * * * * * * * * * * * * * * * * //

dimensions      [0 1 -1 0 0 0 0];

internalField   nonuniform List<vector> 
114940
(
(-0.294429 0.0246221 0.00379722)
(0.229597 0.0181309 0.0143889)
(-0.321736 0.213339 0.0393317)
(0.292108 -0.0650635 -0.00748205)
(0.191217 0.202814 -0.0379305)
(0.071428 -0.068735 0.0470126)
(0.0350714 0.0547441 -0.0541171)
(0.174101 0.0753761 -0.084741)
(-0.116445 0.0106445 0.0504946)
(0.048356 0.158944 0.00515771)
(0.089032 -0.0307615 -0.00132234)
(0.155776 0.0310699 0.0164093)
(0.0135864 0.0127583 -0.053352)
(0.233381 0.0677904 0.1001)
(-0.138566 0.0296628 -0.183648)
(0.123771 0.0097664 0.0492016)
(0.107682 0.073895 -0.025991)
(0.130847 0.00964425 0.0322038)
(0.0616163 0.0420105 -0.0630433)
(0.194405 0.0668013 0.102735)
(-0.0274143 0.0235898 -0.117945)
(0.0807202 0.0706914 0.148063)
(0.118413 0.0272032 0.0190242)
(0.132196 0.0480602 0.0171704)
(0.0767861 0.0355565 -0.0509654)
(0.200914 0.0657352 0.0871379)
(-0.0084978 0.0318505 -0.11414)
(0.131158 -0.00228059 -0.0668664)
(0.0746055 0.0617014 0.149329)
(0.164334 0.0441688 0.0291749)
(0.0889269 0.0533076 -0.0352525)
(0.210707 0.0673432 0.0970133)
(-0.0223331 0.0233432 -0.196018)
(0.374566 0.0859677 0.0136278)
(-0.256527 0.0116405 -0.00843401)
(-0.00641057 0.0555595 0.723914)
(0.0485685 0.183578 0.574934)
(-0.417463 0.0791976 -0.0799775)
(0.38094 0.0642689 0.00219753)
(-0.195346 -0.0304173 -0.0121668)
(0.0042938 0.0525444 0.751394)
(0.0836912 0.0023667 0.514838)
(-0.235471 0.140264 0.00807584)
(0.245768 -0.0579717 -0.0892018)
(-0.212593 0.0631471 0.00597719)
(0.110921 0.00823198 0.468291)
(0.0879637 -0.106418 0.585446)
(0.100679 0.700098 0.370845)
(-0.121319 0.103588 0.112498)
(-0.11277 -0.100435 -0.16942)
(-0.0856187 -0.0749048 0.525637)
(0.0415861 -0.0814861 0.530147)
(0.0874476 -0.0171103 0.521878)
(0.122556 0.0727777 0.473933)
(0.000770806 0.753774 0.528986)
(-0.426807 -0.110247 -0.106256)
(-0.311821 0.0420976 -0.0307617)
(0.565295 -0.0368101 0.470719)
(0.054794 -0.0156112 0.438837)
(0.0680068 0.00287423 0.524252)
(0.124272 0.0525559 0.447389)
(0.0970606 0.0884336 0.579965)
(0.191982 0.593781 0.247198)
(-0.119262 -0.0967461 0.237406)
(-0.289411 0.0288824 -0.0205241)
(0.598893 0.0126086 0.399684)
(0.0531861 0.0103356 0.467122)
(0.139403 0.0213524 0.424023)
(0.100599 0.0882776 0.543055)
(0.280573 0.0463625 0.302745)
(-0.104426 0.347717 0.230537)
(0.280973 -0.158317 0.166291)
(-0.317074 0.144764 -0.0465763)
(0.602778 0.00394716 0.395754)
(0.245991 -0.0407434 0.349531)
(0.0767631 0.0246613 0.512379)
(-0.378328 0.065644 -0.11258)
(0.449658 0.260622 0.188321)
(-0.161689 -0.0483479 -0.256485)
(0.15849 0.0615145 0.00670126)
(0.120951 0.0615483 -0.0390673)
(0.223241 0.0156487 0.0278286)
(-0.00965356 0.190716 -0.123461)
(0.348347 0.0784568 0.190322)
(-0.0775067 0.030037 -0.272057)
(0.116722 -0.00856984 -0.0306285)
(0.0979828 0.0666723 0.12716)
(0.186452 0.0406521 0.0754203)
(0.0699356 0.0610405 -0.0949375)
(0.334809 0.120928 0.164628)
(-0.0337638 0.030728 -0.201775)
(0.123084 0.0349677 -0.0779564)
(0.168621 0.0370924 0.197321)
(0.109561 0.0691856 -0.0699405)
(0.329556 0.0948253 0.137042)
(-0.0739117 0.00411908 -0.221457)
(0.338723 0.028545 -0.0419821)
(-0.220054 0.00628341 0.00403204)
(0.0205028 0.0470093 0.73501)
(0.182353 0.0577407 0.169924)
(-0.174938 0.108858 0.0594505)
(0.273486 -0.0691549 -0.135022)
(-0.192603 0.0460978 0.0583162)
(-0.0699862 -0.05113 0.743097)
(-0.0647279 -0.00370468 0.804137)
(0.186939 -0.0202214 0.143352)
(0.129227 0.650346 0.606546)
(-0.0781538 0.159858 0.00796217)
(-0.107063 -0.163693 -0.134173)
(-0.0821992 -0.131756 0.831548)
(-0.0645438 -0.00165926 0.788572)
(0.235625 0.00350357 0.469746)
(0.147159 0.166414 0.133115)
(-0.0202749 0.742825 0.700047)
(-0.388463 -0.114157 -0.200353)
(0.0229616 -0.199462 0.593836)
(0.0526492 -0.130694 0.59015)
(0.110738 -0.0129568 0.541463)
(0.0968818 0.0952508 0.477922)
(0.112671 0.204437 0.251618)
(0.1326 0.53064 0.513286)
(-0.011744 0.300359 0.169161)
(0.609251 -0.0274713 0.434385)
(0.0288502 -0.107895 0.259551)
(0.0999879 -0.0317952 0.671571)
(0.0854687 0.012264 0.624144)
(0.110918 0.0666457 0.557897)
(0.119207 0.131238 0.553419)
(0.126598 0.195036 0.0524013)
(-0.1902 0.85406 0.797435)
(-0.599194 -0.218395 -0.307119)
(-0.198847 -0.0606726 0.231475)
(0.508606 -0.0516933 0.373853)
(0.0358115 -0.0562537 0.243122)
(0.119856 -0.00234865 0.697191)
(0.120586 0.0248709 0.631889)
(0.095808 0.0775371 0.608165)
(0.0557869 0.189638 0.228075)
(-0.0303827 0.281987 0.883467)
(-0.497937 0.057479 -0.339874)
(-0.170419 -0.0910896 0.21437)
(0.549153 0.0129727 0.331)
(0.0450413 -0.0546993 0.266849)
(0.238752 -0.0369271 0.699863)
(-0.0475368 0.0718696 0.298712)
(0.000442898 0.111025 0.579603)
(0.166179 0.0958849 0.63879)
(0.347344 0.524073 0.102705)
(0.0971297 0.119332 0.377269)
(-0.25954 0.0588204 0.101525)
(0.55079 -0.0405734 0.410861)
(0.248808 -0.0658336 0.36641)
(-0.11694 -0.0489165 0.502063)
(0.0650356 0.0424058 0.374438)
(0.162801 0.0660457 0.656255)
(0.494682 0.1651 0.198497)
(0.189173 0.168978 0.403881)
(0.316193 0.00877315 0.130759)
(-0.272262 0.0726669 -0.0667991)
(0.54205 -0.00316365 0.418062)
(0.064282 -0.0834381 0.345711)
(0.199916 -0.0350889 0.528036)
(0.459329 -0.0457121 0.215799)
(0.0578473 0.306794 0.320592)
(0.323303 -0.117257 0.128528)
(-0.296802 0.112156 -0.056054)
(0.648408 0.030426 0.251678)
(0.208325 0.0190573 0.477158)
(-0.43838 0.110134 -0.131264)
(0.714215 0.360347 -0.0460913)
(0.16657 0.0650468 -0.0293418)
(0.291634 0.000759487 0.0293745)
(-0.131232 0.0729378 0.0165289)
(0.280739 -0.0653464 0.0232681)
(-0.231806 0.0718151 -0.0256523)
(0.124883 -0.00444342 0.271597)
(0.0449771 -0.0491359 0.0436374)
(0.196357 0.596752 0.58657)
(-0.082961 0.158707 -0.16186)
(-0.121799 -0.1648 0.103901)
(0.521238 0.0360329 0.250861)
(0.105498 0.236337 0.229918)
(0.0729694 0.524034 0.435511)
(0.34431 0.0720285 0.156486)
(0.0538315 0.736724 0.642529)
(-0.442587 -0.1631 -0.239063)
(0.166264 -0.199573 0.247422)
(0.180289 -0.0310002 0.386857)
(0.159876 -0.0447295 0.25313)
(0.0573376 0.227074 0.229233)
(0.0109939 0.429918 0.24728)
(0.183632 0.258788 0.161352)
(0.257917 0.458535 0.475633)
(-0.0413565 0.309302 -0.184689)
(0.0840131 -0.283692 0.424797)
(0.0231733 -0.247944 0.481185)
(0.0279298 -0.0376818 0.546424)
(0.0470897 0.0639191 0.458324)
(0.0605423 0.211862 0.145447)
(0.103979 0.62307 0.389291)
(0.386511 0.0784527 0.142538)
(-0.133424 0.897848 0.737526)
(-0.63116 -0.307104 -0.284072)
(0.0906354 -0.164714 0.0237526)
(-0.268945 -0.427611 0.323494)
(-0.0533126 -0.174091 0.407846)
(-0.0395919 -0.0100217 0.632475)
(0.0131778 0.175847 0.544473)
(0.00713748 0.311865 0.263392)
(0.0303722 0.453426 0.320626)
(0.043208 0.411787 0.325397)
(-0.432502 0.00417755 0.0610986)
(-0.0283779 -0.0324394 0.0570569)
(0.451213 -0.144895 0.185625)
(-0.165054 -0.410831 0.336026)
(-0.0361649 -0.128689 0.401594)
(0.00598432 -0.01453 0.639785)
(0.0571287 0.0566179 0.543119)
(0.0352315 0.259155 0.669353)
(-0.158686 0.0512835 0.176562)
(0.350859 0.473901 0.352098)
(0.162718 0.532857 -0.0344126)
(-0.0993831 -0.021653 -0.0119952)
(0.495619 -0.0811366 0.181778)
(-0.151312 -0.372277 0.356106)
(0.0189608 -0.354679 0.388491)
(-0.150054 -0.0880647 0.800222)
(0.0145454 0.0726469 0.748669)
(0.0242371 0.542139 0.610028)
(0.435708 0.0369821 0.000915665)
(-0.214357 1.02821 0.831433)
(-0.177118 -0.00815296 -0.0239832)
(0.599945 -0.150342 0.221004)
(0.0563226 -0.0989842 0.186041)
(-0.10362 -0.311544 0.553234)
(-0.11046 -0.0323874 0.756584)
(0.0700008 0.0846729 0.768796)
(0.0760404 0.142294 0.325776)
(-0.142382 0.315751 1.03725)
(-0.217459 0.000886815 0.218941)
(0.605878 -0.00348349 0.309435)
(-0.00822415 -0.0469267 0.116954)
(-0.0783566 -0.317488 0.55374)
(-0.0665807 -0.168791 0.806052)
(0.428217 0.11998 0.0720118)
(-0.0874775 -0.0265907 0.971257)
(-0.266799 0.0637921 0.237347)
(0.641922 -0.0250326 0.256969)
(0.245717 -0.131497 0.0597629)
(0.227548 -0.126126 0.114518)
(0.323492 0.0489568 0.458464)
(0.0694603 -0.0452274 -0.14864)
(0.203381 0.00165887 0.0172525)
(0.148202 0.0909336 -0.0273177)
(0.27394 0.00406042 0.0255307)
(0.114303 0.127184 -0.0254929)
(-0.108692 0.103561 0.0377939)
(0.272787 -0.0757165 -0.0717498)
(-0.230044 0.084088 0.0750007)
(0.0628629 0.0283512 0.0545446)
(0.160771 -0.106202 -0.0152231)
(0.3472 0.670099 -0.0451085)
(-0.0887271 0.159447 0.135024)
(-0.123929 -0.16129 -0.0681845)
(0.0894018 -0.118408 0.0272166)
(0.178395 0.579976 -0.14556)
(0.362822 0.147961 0.00148403)
(0.171061 0.79753 -0.0194758)
(-0.439714 -0.152313 0.272097)
(0.203534 0.309774 -0.0195573)
(0.0575095 0.737336 0.00149289)
(0.353858 0.327773 0.00486012)
(0.39276 0.511165 0.0212552)
(-0.04238 0.313351 0.168696)
(0.0621406 -0.372243 0.0695955)
(-0.00437038 -0.373399 -0.121665)
(1.10855 0.619388 0.379459)
(0.228856 0.142498 0.00382328)
(0.137682 0.63061 -0.060521)
(0.383794 0.192334 0.0152662)
(-0.0140787 0.966286 -0.00462243)
(-0.620117 -0.304956 0.30347)
(0.148879 -0.190146 -0.0303356)
(-0.272536 -0.471275 -0.168266)
(0.0265516 -0.414605 -0.074494)
(0.780792 0.0438585 0.181004)
(1.39202 0.26031 -0.359743)
(0.216877 0.332255 0.0151477)
(0.104545 0.725824 0.0339587)
(0.165472 0.46442 0.0486929)
(-0.427378 -0.0132742 -0.0285803)
(-0.0341084 -0.0345813 -0.0554178)
(0.43076 -0.130113 -0.0151054)
(-0.202486 -0.439202 -0.00309582)
(0.063028 -0.385559 -0.0916931)
(0.740647 0.270268 0.380531)
(0.629061 0.182085 -0.194885)
(0.419122 0.245793 0.00866277)
(0.0678295 0.540383 0.504102)
(0.539778 0.522029 0.0919391)
(0.251837 0.533766 -0.0477309)
(-0.0936702 -0.051607 0.0352964)
(0.477976 -0.0739573 -0.0136562)
(-0.127225 -0.394216 -0.154219)
(0.0722689 -0.566843 -0.0427795)
(0.316225 -0.177516 0.0674821)
(1.43867 0.099765 -0.023943)
(0.264458 0.204845 0.181227)
(0.12611 0.364715 0.177067)
(-0.129915 1.14835 -0.0141005)
(-0.14963 0.00508521 -0.177206)
(0.650422 -0.233644 -0.0505287)
(0.0159781 -0.235171 0.0541032)
(0.10446 -0.396481 0.122686)
(0.278825 -0.218482 0.152944)
(1.16211 0.55367 -0.0909566)
(0.071639 0.237084 0.0775196)
(0.147078 0.434979 0.13017)
(-0.205779 -0.0424871 -0.194497)
(0.810274 -0.147888 0.026741)
(-0.00838421 -0.255901 0.0770421)
(0.0822075 -0.407113 0.127304)
(0.0148711 -0.558446 0.0233249)
(0.0619158 -0.280325 0.145305)
(-0.0583155 -0.158801 0.0596258)
(-0.263411 0.0693978 -0.229635)
(0.803765 -0.12626 0.0330213)
(0.150801 -0.205387 0.0629496)
(0.234161 -0.201732 0.0504781)
(0.44893 -0.0744102 0.0539162)
(0.114554 -0.0613705 0.203823)
(0.206574 0.00268778 -0.00394082)
(0.146654 0.0899439 0.0227775)
(0.271063 0.00369837 -0.0170812)
(0.111864 0.127052 0.0180201)
(-0.253684 0.0331121 -0.0497265)
(0.340502 0.0488121 0.00809231)
(-0.214716 -0.00724311 0.032508)
(0.263928 -0.0289203 -0.0651154)
(0.105712 -0.039131 -0.0473512)
(-0.201207 0.0566702 -0.0582915)
(0.282303 -0.0374816 0.123889)
(-0.191593 0.0261513 -0.0376841)
(0.0541386 -0.221033 -0.293193)
(0.0145615 -0.0401056 -0.00286767)
(0.225958 0.607941 -0.0976985)
(-0.0806609 0.194864 -0.031856)
(-0.12137 -0.191835 0.159743)
(0.701216 -0.117816 -0.0726829)
(0.197184 -0.138113 -0.310316)
(0.0876058 -0.0268516 -0.52542)
(-0.0137528 0.644364 -0.171555)
(0.265073 0.227399 -0.0141986)
(0.119991 0.787413 -0.121217)
(-0.397314 -0.145345 0.221465)
(0.494039 0.0969933 0.0179777)
(-0.0940321 -0.55135 -0.381151)
(-0.107283 -0.421706 -0.40574)
(-0.151168 -0.0472423 -0.528367)
(-0.0438927 0.115237 -0.506399)
(-0.0537769 0.715275 -0.214117)
(0.237883 0.272149 -0.023651)
(0.299648 0.511884 -0.0379952)
(0.00940312 0.333525 -0.126794)
(-0.307832 -0.246247 0.206386)
(0.114583 -0.315557 -0.174253)
(-0.174867 -0.185307 -0.152767)
(-0.31284 -0.165359 -0.439785)
(0.0246429 -0.0717769 -0.43032)
(-0.0167792 0.198183 -0.329239)
(-0.0691613 0.732215 -0.243577)
(0.285251 0.275102 -0.0183475)
(0.0189044 0.933924 -0.224933)
(-0.552169 -0.247902 0.291596)
(-0.227734 -0.04444 -0.234595)
(0.738641 -0.0760881 -0.133157)
(-0.0551211 -0.263989 -0.266765)
(0.124348 -0.221937 -0.419113)
(0.000802937 -0.0475944 -0.664787)
(-0.0602175 0.15535 -0.284479)
(-0.057056 0.720775 -0.266522)
(0.299728 0.28016 -0.0747309)
(0.518284 0.458809 -0.0225919)
(0.0568523 0.150348 0.0250577)
(-0.198068 0.0316569 -0.176711)
(0.710669 -0.13023 -0.152963)
(0.0507969 -0.27693 -0.193231)
(-0.22551 -0.357191 -0.493311)
(-0.100437 -0.020001 -0.479336)
(0.00389366 0.120609 -0.357496)
(0.056116 0.461789 -0.268813)
(0.536297 0.226867 -0.0548322)
(0.241641 0.580683 -0.286145)
(0.27663 -0.0214346 -0.113591)
(-0.190446 0.0736942 -0.0396833)
(0.623489 -0.0978307 -0.0520854)
(-0.177971 -0.383688 -0.452843)
(-0.0915161 -0.0474182 -0.47298)
(0.00150661 0.0948674 -0.402703)
(-0.0241231 -0.00290413 -0.354137)
(-0.22571 1.09969 -0.467602)
(0.288889 -0.0811025 -0.0993363)
(-0.188097 0.0403389 -0.0274681)
(0.673283 -0.0743444 -0.0100242)
(0.137018 -0.388643 -0.407802)
(0.219033 -0.302431 -0.369318)
(0.490475 0.0187827 -0.109301)
(0.192204 0.00127531 -0.210281)
(-0.257492 0.0829344 0.0520136)
(0.790723 -0.137329 0.0245388)
(0.286928 -0.102474 -0.0294401)
(-0.367551 0.140377 0.118567)
(0.164378 -0.13485 0.0235822)
(0.162959 0.061845 0.0189065)
(0.288368 -0.00465833 -0.00374634)
(0.0155243 0.190252 -0.00264801)
(0.109449 -0.0820285 -0.41972)
(0.0256468 -0.304274 -0.259744)
(0.14249 -0.0201104 -0.165292)
(-0.378923 0.061115 0.219689)
(-0.0715251 -0.318051 -0.442669)
(0.29682 -0.0952266 -0.442185)
(0.205833 0.000883862 -0.103103)
(-0.23755 0.163185 0.0587533)
(-0.202642 -0.341634 -0.437235)
(0.24435 -0.128608 -0.576366)
(0.143382 -0.0238584 -0.0987149)
(0.116555 -0.115305 -0.211077)
(0.131651 0.66249 -0.0496177)
(-0.119138 0.121044 -0.164525)
(-0.122068 -0.121584 0.224996)
(0.346757 0.221826 -0.0953969)
(0.194304 -0.302142 -0.297776)
(0.120648 -0.365871 -0.340293)
(0.159429 -0.146185 -0.330851)
(-0.0965037 -0.0439485 -0.254616)
(0.0698322 0.00851865 -0.229436)
(0.158903 0.103076 -0.197159)
(0.0185882 0.759525 -0.112507)
(-0.374154 -0.126397 0.145707)
(0.453679 0.135536 -0.00380745)
(-0.403874 -0.0323207 0.0565443)
(0.157189 -0.0411994 -0.0429635)
(-0.180963 0.20023 0.016902)
(0.582126 -0.00441614 -0.184866)
(0.192278 -0.0191844 -0.252787)
(0.160176 0.0566996 -0.211965)
(0.121505 0.136905 -0.246521)
(0.212708 0.55795 -0.013435)
(-0.0590765 0.254959 -0.263849)
(-0.211102 -0.17789 0.286954)
(-0.316263 -0.15309 -0.00637674)
(0.781169 -0.0613291 -0.134518)
(0.0901166 -0.0248851 -0.258646)
(0.141197 0.00551259 -0.246597)
(0.0803251 0.0827995 -0.264582)
(0.195414 0.142606 -0.165412)
(-0.082327 0.895663 -0.151382)
(-0.63776 -0.26466 0.248275)
(0.825332 0.334102 0.0401961)
(-0.369814 0.169161 0.0804525)
(0.764643 -0.0424542 -0.146367)
(0.288772 -0.0966694 -0.293226)
(-0.0389846 0.0336411 -0.283476)
(0.146442 0.0968718 -0.193069)
(0.0907421 0.29993 -0.190094)
(-0.427947 0.081453 0.286388)
(0.657518 0.0150928 -0.0895622)
(0.0396252 -0.187924 0.0313166)
(0.255566 0.0580885 -0.115337)
(-0.238354 0.0260538 0.0803508)
(0.696146 -0.0273894 -0.231177)
(0.200811 -0.00998902 -0.220033)
(0.168889 -0.088489 -0.297226)
(0.426864 0.533067 -0.0980763)
(0.0270357 0.220286 -0.359518)
(-0.211403 0.0977345 0.00493525)
(0.800937 0.0239723 -0.163759)
(0.236719 0.0459789 -0.202358)
(-0.362373 0.18771 0.197183)
(0.159656 0.0931351 0.0999795)
(0.332604 0.00540682 -0.128832)
(0.116213 -0.0362066 -0.278773)
(0.212419 -0.204136 -0.280917)
(-0.219219 0.22736 -0.0905928)
(0.0494988 -0.07163 0.168739)
(0.140476 -0.148817 -0.298478)
(-0.307816 0.0676455 0.0132265)
(0.268953 0.164436 -0.0350473)
(-0.126083 -0.0528598 0.144059)
(0.148217 -0.145577 -0.313981)
(0.127365 -0.0623676 -0.229191)
(-0.26574 -0.0489649 -0.0399871)
(0.129841 0.138224 0.0643044)
(0.0811195 -0.0038276 -0.0753039)
(0.0530371 0.0020987 0.0915784)
(0.18194 0.110886 0.0558712)
(0.122782 -0.0183539 -0.00818792)
(0.13206 -0.00152912 0.0169798)
(0.0686171 0.151682 -0.0474523)
(0.0670273 -0.068971 0.00746762)
(0.165524 0.0779776 -0.0322369)
(0.0032044 -0.0247406 0.0813153)
(0.24992 0.098987 -0.134318)
(-0.158002 0.000348547 0.226267)
(0.388356 0.161362 -0.165796)
(-0.280456 -0.0370619 0.148476)
(0.105267 0.0456054 0.0294125)
(0.134155 0.0314951 -0.0390393)
(0.0582288 0.0180389 0.0843302)
(0.212096 0.0779875 -0.13187)
(-0.0414076 -0.00910495 0.168308)
(0.332637 0.182129 0.012253)
(-0.272358 -0.03509 0.0368625)
(0.101556 0.000868762 -0.0178358)
(0.147004 0.066406 -0.0256344)
(0.0592968 0.0140861 0.0661493)
(0.217646 0.0767579 -0.0997768)
(-0.0387462 0.0104208 0.176477)
(0.367015 0.139841 -0.253809)
(-0.297845 -0.00238809 0.30166)
(0.173832 0.0754291 -0.0271883)
(0.0811828 0.034871 0.0334934)
(0.220721 0.0861551 -0.0887782)
(0.0118917 0.01188 0.156931)
(0.347526 0.144229 -0.251088)
(-0.242116 -0.00669487 0.237459)
(0.223655 0.0736448 -0.103415)
(0.0228681 0.035701 0.149695)
(0.319086 0.116225 -0.225712)
(-0.0985716 0.0169018 0.279829)
(0.0744193 0.0455668 0.0953043)
(0.3335 0.124338 -0.182753)
(0.102202 0.0186128 -0.039115)
(0.0410773 0.00749072 0.0373081)
(0.0898003 0.00853528 0.00547919)
(0.115234 0.0225768 -0.0346666)
(0.0232865 0.00030963 0.135132)
(0.114351 0.0105258 -0.0332045)
(0.110047 0.0077607 -0.0177962)
(0.093927 0.016372 0.113253)
(0.042389 0.0210349 -0.0657167)
(0.068765 -0.00360161 -0.57578)
(0.0665668 0.0413373 -0.570864)
(-0.00176154 -0.0386303 -0.203857)
(-0.0115428 0.0772395 -0.218883)
(0.232783 0.0914936 -0.0682181)
(0.0548283 0.0312392 -0.711733)
(0.0352061 -0.133632 0.608101)
(0.0597288 0.0996958 -0.636274)
(0.526435 -0.0484752 0.245049)
(-0.0257532 0.0116447 -0.203629)
(0.10605 -0.0902918 0.325144)
(0.202237 0.204909 -0.139701)
(0.101297 0.084239 -0.745968)
(0.0759897 -0.399376 0.737694)
(0.0745957 0.516565 -0.670938)
(0.063966 -0.0827096 0.423989)
(0.109168 0.0494614 -0.274075)
(0.020836 -0.460731 0.318469)
(0.0114559 0.286339 -0.248547)
(-0.101718 0.0752492 -0.549044)
(-0.0783914 -0.402958 0.735664)
(-0.124744 0.243988 -0.523429)
(0.0925696 -0.186097 0.257367)
(0.0517502 0.0779644 -0.403621)
(0.0599121 -0.0284742 0.296362)
(0.0451559 0.10486 -0.390415)
(0.537267 0.00895578 0.210045)
(0.054535 -0.0301694 0.0100023)
(0.0575012 -0.00903523 -0.0241952)
(0.148311 -0.0107596 -0.201302)
(0.199421 0.0356524 -0.250099)
(0.543479 -0.110039 0.203776)
(-0.0156538 0.00162998 0.0516747)
(0.133538 -0.0115447 -0.225274)
(0.134883 0.0518872 0.114445)
(0.161348 0.00781022 -0.210517)
(0.0626013 0.0143164 0.015199)
(0.0324635 0.0137814 -0.0129945)
(0.0864438 -0.0460014 0.0453027)
(0.0811675 0.0053461 -0.00556697)
(0.551923 0.0132645 0.211869)
(0.234075 0.0628942 -0.0414048)
(0.133011 0.0504364 -0.268839)
(0.188093 -0.0245896 0.277272)
(0.1889 0.0630418 -0.0775339)
(0.0384926 0.0372079 0.0153709)
(0.153309 0.0383021 -0.20113)
(0.129524 -0.04101 0.223435)
(0.0849461 -0.093281 -0.373535)
(0.0983949 -0.103681 0.0334717)
(0.119806 -0.000460477 0.0107004)
(0.380486 -0.124053 -0.00894712)
(0.240558 0.0668019 -0.0583927)
(0.098474 -0.280423 0.276981)
(0.209965 0.326832 -0.257495)
(0.765282 -0.0863006 0.0557018)
(0.0692275 -0.418382 0.0467516)
(0.135006 0.391748 0.0598662)
(0.204626 0.0641384 -0.284215)
(-0.0359785 -0.394506 0.406493)
(0.125322 0.183163 -0.381735)
(0.0256934 -0.341203 -0.0105036)
(0.97199 0.740479 0.305698)
(0.194682 -0.110068 -0.4926)
(0.102224 0.0043065 0.321788)
(0.0757777 0.0877798 -0.482791)
(0.392528 -0.0821089 -0.0188894)
(0.289763 -0.212164 -0.342512)
(0.0827069 0.0829383 0.429177)
(-0.0560098 -0.162481 -0.50134)
(0.24212 0.279599 -0.072612)
(0.0425157 -0.259314 0.0324755)
(0.373948 -0.172925 0.0703628)
(0.0961298 0.174462 -0.411811)
(-0.131302 -0.531469 0.469401)
(0.0315778 0.270614 -0.205217)
(-0.116558 -0.364091 -0.00146002)
(0.997745 0.694755 0.280537)
(-0.00574812 -0.628694 -0.0648648)
(-0.0397537 0.273778 0.101549)
(0.0768877 0.0805483 -0.496005)
(0.0609511 -0.289753 0.48546)
(0.0891832 0.208712 -0.441381)
(0.994667 0.728842 0.299117)
(0.0535369 -0.424011 -0.046599)
(0.876125 0.214078 0.292929)
(0.102383 -0.128872 -0.49984)
(0.0104233 -0.00473318 0.582337)
(-0.0337209 0.165186 -0.54051)
(0.437211 -0.128379 -0.00389488)
(0.940862 0.230282 0.318566)
(1.1794 0.33409 -0.409446)
(0.161433 -0.287391 -0.587597)
(0.0336024 0.0181119 0.580183)
(-0.045209 0.113029 -0.596251)
(1.21509 0.292539 -0.394608)
(0.417825 -0.140074 0.0230374)
(0.510346 0.090274 -0.37185)
(0.119238 0.0264178 -0.478609)
(-0.100377 -0.0695871 0.311271)
(0.0384159 0.166365 -0.623359)
(0.37723 0.0748939 -0.107768)
(0.428806 -0.126075 -0.175341)
(0.209542 -0.104451 0.198112)
(1.89721 0.172682 -0.0104728)
(0.610245 0.0470376 -0.073973)
(0.401376 -0.0274447 -0.116027)
(0.0589424 -0.0513513 0.0578726)
(0.0456118 0.00614328 -0.012817)
(0.276535 -0.0655401 -0.156136)
(0.108324 0.0222997 0.0997996)
(0.607241 -0.148828 -0.0656306)
(-0.0490694 0.0203687 -0.00908934)
(0.412737 -0.0149274 -0.113619)
(0.28836 -0.0235711 0.0510834)
(0.0308001 0.0292822 -0.00305788)
(0.065217 -0.0561092 0.0240554)
(0.0668913 0.0198781 -0.00604867)
(0.282113 -0.0477918 -0.152621)
(0.0874889 0.0287943 0.131147)
(0.205674 -0.0773488 -0.144765)
(0.112667 0.0332265 0.195946)
(0.660168 -0.0906794 -0.0769037)
(0.536919 -0.062692 -0.150344)
(0.0189949 0.02621 -0.0432086)
(0.256529 0.0149881 0.0949239)
(0.475073 -0.13911 -0.262837)
(0.142024 0.195829 0.274012)
(0.206652 -0.384186 0.0845991)
(0.19246 0.36332 0.0175271)
(0.585953 -0.024798 -0.0976587)
(0.502071 -0.0932237 -0.0958535)
(0.112892 -0.552335 -0.277162)
(0.150785 0.43463 0.167304)
(0.0242485 -0.346207 -0.0609504)
(1.0923 0.644834 0.384581)
(0.418385 -0.183086 -0.24837)
(0.0836905 0.182434 0.346501)
(0.0558841 -0.365056 -0.249817)
(0.144298 0.187204 0.286285)
(0.376636 -0.103653 0.0872503)
(1.12188 0.672667 0.398392)
(0.0600522 0.0219674 -0.535858)
(-0.0513735 -0.0498399 0.453689)
(0.0296267 0.0117947 -0.50401)
(-0.0719299 0.164641 0.528382)
(0.358855 -0.210386 0.0811657)
(0.995417 0.0850274 0.250795)
(1.32811 0.276363 -0.37824)
(-0.0402525 0.180069 -0.58744)
(-0.0402977 -0.141635 0.509235)
(0.0124631 -0.120464 -0.631979)
(0.146258 0.204725 0.558354)
(0.365095 -0.154762 0.105681)
(0.815429 0.315618 0.290169)
(0.722947 0.226984 -0.41159)
(0.0937909 0.319725 -0.389113)
(-0.0260965 -0.13526 0.451375)
(-0.0293203 0.0477012 -0.649266)
(0.183091 0.168395 0.559407)
(0.721352 -0.110292 -0.0350654)
(0.239947 -0.100724 0.0988289)
(1.44913 0.104024 -0.0201252)
(-0.00549589 0.218414 -0.394166)
(0.0329973 -0.00596801 0.459134)
(0.0670913 0.0318493 -0.493331)
(0.0431963 0.132232 0.448132)
(0.437702 -0.0196091 -0.0440977)
(0.113531 0.022122 0.388643)
(0.0750106 0.0837366 0.392479)
(0.439216 -0.00776736 -0.0412009)
(0.193747 0.0324541 0.105833)
(0.0544419 0.0141003 0.32357)
(0.0801119 -0.0579873 -0.45201)
(0.0907045 0.169192 0.400723)
(0.642467 -0.13313 -0.057028)
(0.444876 0.0464381 -0.0510676)
(0.0640105 0.0319783 0.381344)
(0.0591866 -0.151547 -0.435993)
(0.120726 0.228502 0.380426)
(0.0243969 0.24503 -0.596366)
(0.0678754 -0.0583822 0.591267)
(0.0465588 0.137369 -0.564406)
(-0.00295318 -0.0616839 0.544335)
(0.0211972 0.101507 -0.402202)
(0.00495259 -0.235046 0.413559)
(0.0464231 0.111583 -0.342986)
(0.0152759 0.0867858 -0.646262)
(0.134565 -0.00755136 0.561137)
(0.0167102 0.0940834 -0.637862)
(0.00216918 0.0634986 0.438215)
(0.047644 -0.0126417 -0.380045)
(-0.0196849 0.00722138 0.513986)
(-0.0514475 0.108433 -0.447824)
(0.077956 0.0324103 -0.669456)
(0.123425 0.00954225 0.574172)
(0.0635426 0.0970787 -0.670549)
(-0.010942 0.139581 0.472881)
(0.0317836 -0.00181166 -0.475782)
(-0.0226234 0.0118669 0.530631)
(-0.0257178 0.0926652 -0.508147)
(0.427575 -0.00397339 0.19046)
(0.805752 -0.0760945 0.111292)
(0.38891 -0.0110317 0.194618)
(0.503548 -0.0599009 0.264827)
(0.303497 -0.0218695 0.0561732)
(0.289982 0.0214398 -0.16604)
(0.0791868 -0.267946 0.320112)
(0.291199 0.119705 -0.0688482)
(0.449065 -0.0579953 0.0327857)
(0.104372 0.132143 -0.359686)
(0.0938533 0.00803171 0.292139)
(0.198436 0.0522067 -0.331793)
(1.1039 0.319393 0.218007)
(1.05497 0.00747076 0.233096)
(0.198759 0.116614 -0.493193)
(0.0375463 0.0578968 0.468637)
(0.891694 -0.196803 0.214895)
(0.165275 0.131305 -0.445195)
(0.759678 0.203505 -0.147406)
(1.62049 0.281039 0.0993384)
(0.121188 -0.446524 -0.481823)
(0.0248709 0.201846 0.551627)
(0.0845653 -0.222045 -0.569253)
(0.319088 0.240261 -0.0396523)
(0.240175 -0.343919 0.0618641)
(1.21579 0.38482 -0.440137)
(0.39521 -0.197034 0.0125187)
(0.156766 0.182854 -0.384882)
(-0.117247 -0.567543 0.4924)
(0.0792707 0.338674 -0.238114)
(0.0408682 -0.391487 -0.059916)
(0.667181 0.120664 0.204816)
(-0.0274436 -0.632245 0.00884286)
(0.196458 0.103374 0.0491542)
(0.00327762 0.153769 -0.529658)
(0.0146786 -0.283969 0.481218)
(0.100961 0.10133 -0.473073)
(0.803307 0.207168 0.277478)
(1.1864 0.231222 -0.353218)
(0.00940844 -0.309718 0.12346)
(0.424717 0.484397 0.518538)
(0.396795 -0.165967 -0.345939)
(0.061185 0.0854715 0.515386)
(0.0292331 0.0305931 -0.447281)
(0.272144 0.275107 -0.043107)
(0.123141 -0.260477 0.0135142)
(0.622777 0.0951112 -0.374308)
(0.470302 -0.129518 -0.0948899)
(-0.0478636 0.103881 -0.59186)
(0.0607901 -0.45594 0.525055)
(0.125328 0.403595 -0.274537)
(0.204248 0.066188 -0.0775447)
(0.129534 -0.546382 -0.0433097)
(0.165961 0.230721 0.0608526)
(0.220196 -0.321384 -0.707234)
(0.134541 0.142098 0.582677)
(0.18584 -0.00627315 -0.682109)
(0.289853 0.301583 -0.0620791)
(0.394494 -0.16537 -0.114574)
(1.89368 0.174905 0.0358466)
(0.177201 -0.196077 -0.184)
(0.0252877 0.171283 -0.784696)
(-0.0528056 -0.439603 0.590238)
(0.0938408 0.264845 -0.668655)
(0.271958 -0.195483 0.175236)
(1.78243 0.166368 -0.027605)
(0.0167195 -0.403066 0.0294521)
(0.207801 0.193742 0.00411036)
(0.0721752 0.0328973 0.0481591)
(-0.0294004 0.0510269 0.0577694)
(-0.0782865 0.10936 0.0438822)
(-0.134171 0.00858251 -0.0157423)
(-0.014211 0.0638381 0.0300484)
(0.00935873 0.00411264 0.0793114)
(0.266519 -0.0374581 -0.0115625)
(0.0347494 0.0248025 -0.0083525)
(0.3922 -0.142024 0.0750298)
(0.185785 -0.0743375 -0.17302)
(0.178583 0.029723 0.201727)
(0.144649 0.113791 -0.32251)
(-0.0417658 0.0128911 0.296175)
(1.0217 -0.10549 -0.0527062)
(0.756485 -0.160934 0.149063)
(0.417168 -0.162092 0.0281303)
(0.431329 0.0373373 -0.0346968)
(1.2829 -0.104172 -0.0145131)
(0.381603 0.133256 -0.0902059)
(0.51815 -0.0196466 0.0447962)
(1.3377 -0.566353 0.0976795)
(0.481738 -0.0810802 -0.185056)
(0.451899 -0.0749089 -0.247724)
(1.35131 0.201873 0.11423)
(0.887581 0.497203 -0.184707)
(0.691573 0.12228 -0.214811)
(0.546458 0.0421841 0.0459289)
(0.367153 0.0517514 -0.127193)
(0.0566306 -0.274992 0.0643837)
(0.20233 -0.160275 0.123399)
(0.073351 0.163098 -0.172619)
(0.185217 -0.38791 0.497116)
(-0.0246055 0.261928 -0.5681)
(-0.0125488 -0.0937619 0.445544)
(1.10081 0.556186 0.331854)
(0.0629965 -0.546973 -0.128759)
(-0.00582623 0.346952 0.0080514)
(0.0208151 -0.329173 -0.37787)
(0.175435 0.191531 0.356919)
(-0.0962169 -0.365856 -0.337118)
(0.0431978 0.638813 0.609611)
(0.0592045 -0.45376 -0.121584)
(0.830409 0.0370137 0.207914)
(-0.155759 -0.102972 -0.646793)
(-0.0645831 0.156951 0.511175)
(-0.0325806 -0.194799 -0.36617)
(-0.123621 0.21344 0.401539)
(0.914188 0.350988 0.121368)
(0.816652 0.258086 -0.143635)
(1.32671 0.104101 -0.523829)
(1.03001 0.357796 0.0211592)
(0.927024 0.293929 -0.216271)
(0.752095 0.138855 0.226962)
(0.518301 0.214693 -0.109337)
(0.0775054 -0.572567 0.0785816)
(1.41914 0.361664 -0.379789)
(0.380505 -0.216862 0.0718767)
(0.0525374 0.192558 -0.15744)
(0.248618 -0.378505 0.434804)
(-0.0401316 0.239139 -0.378887)
(-0.0113324 -0.137099 0.446049)
(1.35263 0.196393 -0.318418)
(0.0258367 -0.411952 0.088707)
(0.677805 0.39298 0.442833)
(0.0765079 -0.0977793 -0.568725)
(0.0403637 0.233482 0.424091)
(-0.0141443 -0.232688 -0.510835)
(0.013909 0.348876 0.386666)
(0.880734 0.327613 0.147031)
(0.84854 0.115685 -0.0529352)
(1.39795 -0.0431895 0.0990249)
(0.409219 0.419149 0.0120258)
(0.50488 0.125905 0.361421)
(0.450981 0.187974 -0.0374302)
(0.122854 -0.266822 0.0630315)
(0.794792 0.21318 -0.416406)
(0.526446 -0.194355 0.0100985)
(0.0771146 0.24162 -0.195094)
(0.259793 -0.384471 0.474594)
(0.0340813 0.149317 -0.363441)
(0.0278329 -0.0472822 0.47123)
(0.465906 0.185647 -0.104125)
(0.0757777 -0.611184 -0.104146)
(0.164522 0.194455 0.0134006)
(0.00493121 -0.0500566 -0.715585)
(0.224293 0.185915 0.526319)
(-0.024679 -0.323486 -0.476149)
(0.0480451 0.178529 0.318827)
(0.317937 0.249947 0.0827315)
(1.30854 0.395631 0.0769413)
(1.50414 0.0988859 -0.120819)
(0.807725 0.326269 -0.112903)
(1.34531 0.173035 0.0454106)
(0.460837 0.249184 0.204632)
(0.263991 0.27627 -0.271829)
(0.0586293 -0.232601 -0.0206636)
(1.41805 0.11067 0.021232)
(0.306371 -0.0527265 0.0130762)
(0.0453986 0.294371 -0.226592)
(0.269001 -0.328654 0.464632)
(0.0919221 0.154273 -0.403124)
(0.0818961 -0.0370692 0.444239)
(1.51482 0.116937 -0.0518493)
(0.046358 -0.362253 0.0780034)
(0.129541 0.17853 0.0252161)
(0.0479432 0.000338333 -0.594268)
(0.0656497 0.123572 0.407563)
(-0.0203271 -0.28159 -0.380578)
(0.101335 0.144288 0.308238)
(0.271688 -0.03347 -0.074919)
(0.180385 0.0439514 0.069676)
(-0.0401207 -0.0878933 -0.128045)
(0.160051 0.152517 0.47732)
(0.350459 0.00611892 -0.0259093)
(0.473524 -0.0722875 -0.134921)
(0.460591 -0.0351369 -0.277097)
(0.39459 0.0116681 0.0729149)
(0.606234 0.0138195 0.0299996)
(0.0688863 0.0613815 0.144834)
(0.289933 -0.0834332 -0.274709)
(0.0351271 0.261833 0.195164)
(0.0322279 -0.0886085 -0.47934)
(0.0141264 0.15806 0.637116)
(-0.0270773 -0.228586 -0.699468)
(0.0731403 0.149714 0.690457)
(0.295923 0.0290797 0.0421488)
(0.0597694 -0.605562 -0.338233)
(0.0220804 0.389552 0.117133)
(-0.00125534 -0.198322 -0.379548)
(0.0400598 0.222864 0.597086)
(0.066803 -0.617932 -0.622636)
(0.0976799 0.61785 0.627007)