/*--------------------------------*- C++ -*----------------------------------*\
  =========                 |
  \\      /  F ield         | OpenFOAM: The Open Source CFD Toolbox
   \\    /   O peration     | Website:  https://openfoam.org
    \\  /    A nd           | Version:  10
     \\/     M anipulation  |
\*---------------------------------------------------------------------------*/
FoamFile
{
    format      ascii;
    class       volVectorField;
    location    "0.05";
    object      U_0;
}
// * * * * * * * * * * * * * * * * * * * * * * * * * * * * * * * * * * * * * //

dimensions      [0 1 -1 0 0 0 0];

internalField   nonuniform List<vector> 
114940
(
(-0.295919 0.0247882 0.00506096)
(0.228822 0.0179544 0.0131232)
(-0.323545 0.2146 0.0403937)
(0.292173 -0.0660014 -0.00857684)
(0.193436 0.20381 -0.0372706)
(0.0703401 -0.0695177 0.045823)
(0.035951 0.0552885 -0.0525294)
(0.173056 0.0750548 -0.0859356)
(-0.115318 0.0114514 0.0517078)
(0.0480369 0.159437 0.00452317)
(0.0898134 -0.0311389 -0.000688568)
(0.155288 0.0308949 0.0153892)
(0.0145338 0.0131419 -0.051719)
(0.232543 0.0674225 0.098484)
(-0.137535 0.0305872 -0.183538)
(0.123655 0.00947075 0.048278)
(0.108568 0.0737283 -0.025534)
(0.130319 0.00933302 0.0311821)
(0.0624925 0.0422282 -0.0615968)
(0.193814 0.0663194 0.101016)
(-0.0270733 0.0241191 -0.116015)
(0.0804764 0.070827 0.148363)
(0.11891 0.0269952 0.0190513)
(0.13198 0.047607 0.0161526)
(0.0775378 0.0357455 -0.0497144)
(0.20046 0.0654822 0.0856539)
(-0.00815585 0.0323173 -0.112352)
(0.131112 -0.00237382 -0.067483)
(0.0749943 0.0618954 0.150383)
(0.163954 0.043729 0.0278399)
(0.0898181 0.0533258 -0.0342852)
(0.210219 0.0668504 0.0958867)
(-0.0218108 0.0237115 -0.195834)
(0.37409 0.0859887 0.0136731)
(-0.25601 0.012114 -0.00851012)
(-0.00550189 0.0557443 0.732681)
(0.050724 0.184718 0.577979)
(-0.418264 0.0804433 -0.0792439)
(0.379822 0.063383 0.00211365)
(-0.194547 -0.0298211 -0.0122471)
(0.0048204 0.0520086 0.760105)
(0.0855367 0.00273712 0.518046)
(-0.236551 0.142685 0.00991759)
(0.244812 -0.0601152 -0.090295)
(-0.211386 0.0649237 0.0065435)
(0.111072 0.00792609 0.473396)
(0.089386 -0.106957 0.589324)
(0.10054 0.707167 0.376761)
(-0.1246 0.101704 0.111081)
(-0.110241 -0.0997178 -0.1694)
(-0.0871594 -0.0757828 0.529649)
(0.0408984 -0.0821829 0.535717)
(0.0882039 -0.0173706 0.525434)
(0.122457 0.0730405 0.479907)
(0.00224296 0.759186 0.532392)
(-0.429672 -0.108451 -0.104256)
(-0.315231 0.0416928 -0.031265)
(0.570553 -0.0369305 0.473759)
(0.0537811 -0.0158753 0.443621)
(0.0682685 0.00271847 0.528046)
(0.124336 0.0527841 0.453189)
(0.0980798 0.0888438 0.583417)
(0.191197 0.601404 0.253365)
(-0.122629 -0.0987433 0.236109)
(-0.292531 0.0288325 -0.0214044)
(0.60405 0.0122411 0.403232)
(0.0529464 0.00992988 0.470563)
(0.139515 0.0212617 0.429594)
(0.101625 0.0884996 0.546464)
(0.279649 0.0479302 0.308434)
(-0.107416 0.348955 0.229213)
(0.281851 -0.159005 0.16692)
(-0.320096 0.145038 -0.0467417)
(0.608536 0.00321433 0.397696)
(0.246777 -0.0412229 0.354315)
(0.0776712 0.0250139 0.51576)
(-0.381706 0.0643957 -0.110887)
(0.450242 0.26118 0.186298)
(-0.162039 -0.0484663 -0.255029)
(0.158041 0.062355 0.00557686)
(0.121776 0.0610063 -0.0382819)
(0.222502 0.0156651 0.0267986)
(-0.00861157 0.19157 -0.122068)
(0.347683 0.0774537 0.188664)
(-0.0772969 0.0308468 -0.269962)
(0.116525 -0.00824298 -0.0313229)
(0.0983344 0.066618 0.128351)
(0.185904 0.0403635 0.0740386)
(0.0708751 0.060628 -0.0940114)
(0.334669 0.120902 0.163421)
(-0.0339112 0.0310672 -0.200689)
(0.123733 0.0351335 -0.0779596)
(0.168042 0.0369291 0.197407)
(0.110297 0.0695361 -0.0693552)
(0.329492 0.0941338 0.136049)
(-0.0735844 0.00475044 -0.221811)
(0.337398 0.0277397 -0.0425076)
(-0.218984 0.00685918 0.00408935)
(0.0183479 0.0474147 0.744441)
(0.185495 0.0581687 0.171074)
(-0.174843 0.110738 0.0616377)
(0.272182 -0.0708632 -0.136255)
(-0.191253 0.0472185 0.0588474)
(-0.0708734 -0.0512979 0.752991)
(-0.0668985 -0.00396574 0.81362)
(0.190021 -0.0205937 0.145023)
(0.130651 0.657169 0.614456)
(-0.0814724 0.157788 0.00636118)
(-0.104405 -0.162982 -0.134226)
(-0.0854285 -0.133008 0.840498)
(-0.0672966 -0.00243462 0.79868)
(0.238566 0.00364254 0.473631)
(0.148399 0.167734 0.135236)
(-0.0181563 0.74807 0.706199)
(-0.39058 -0.11188 -0.198931)
(0.0223855 -0.20089 0.599127)
(0.0526726 -0.132493 0.594622)
(0.111587 -0.0139226 0.545694)
(0.0977402 0.095161 0.482496)
(0.114259 0.204963 0.253731)
(0.133014 0.538464 0.521623)
(-0.0150619 0.298257 0.167669)
(0.616012 -0.0277977 0.437751)
(0.0268212 -0.108456 0.262911)
(0.0986754 -0.0322727 0.67697)
(0.0854652 0.011851 0.629102)
(0.111201 0.0666111 0.562904)
(0.120296 0.131465 0.557971)
(0.127467 0.196594 0.0544829)
(-0.188295 0.859802 0.803065)
(-0.602393 -0.218441 -0.307774)
(-0.201662 -0.0605404 0.232926)
(0.513735 -0.0520929 0.376012)
(0.0335319 -0.0569039 0.246673)
(0.118744 -0.00262745 0.702618)
(0.1206 0.0246729 0.637674)
(0.0966073 0.0775882 0.613129)
(0.0564567 0.189918 0.230525)
(-0.0286762 0.282652 0.889555)
(-0.500582 0.0614773 -0.3385)
(-0.172859 -0.0908889 0.215519)
(0.554055 0.0122553 0.333128)
(0.0430757 -0.0555393 0.270312)
(0.237964 -0.0373687 0.706481)
(-0.0465496 0.0715408 0.300627)
(0.000381782 0.110655 0.587843)
(0.166724 0.0958875 0.641977)
(0.347389 0.530862 0.109207)
(0.0954436 0.118008 0.37719)
(-0.262301 0.0596342 0.102434)
(0.555996 -0.0417128 0.413669)
(0.249158 -0.0668573 0.371968)
(-0.118407 -0.0498904 0.505975)
(0.0643287 0.0420718 0.380263)
(0.163006 0.0660523 0.660494)
(0.494424 0.166511 0.205524)
(0.187334 0.168083 0.403518)
(0.317235 0.00962845 0.131742)
(-0.275098 0.0720278 -0.0669273)
(0.547504 -0.00360619 0.420532)
(0.0626468 -0.0844899 0.35077)
(0.200624 -0.036236 0.532012)
(0.459808 -0.0462402 0.221052)
(0.05556 0.307375 0.320634)
(0.324524 -0.118137 0.130023)
(-0.300148 0.112803 -0.057439)
(0.654158 0.0294463 0.255135)
(0.209642 0.0187673 0.480518)
(-0.442895 0.109512 -0.129647)
(0.716211 0.360295 -0.0471981)
(0.166974 0.0653184 -0.0290313)
(0.291737 0.000899705 0.0293329)
(-0.130273 0.0746614 0.0169197)
(0.279063 -0.0669111 0.0232335)
(-0.230403 0.0728826 -0.0258939)
(0.124112 -0.00446337 0.277852)
(0.0456374 -0.0491149 0.0445296)
(0.197491 0.603786 0.59395)
(-0.0861961 0.15624 -0.162727)
(-0.119253 -0.164483 0.104418)
(0.519396 0.0385072 0.252489)
(0.104771 0.240799 0.234955)
(0.0728094 0.530607 0.443532)
(0.347355 0.0733505 0.158753)
(0.0572264 0.741459 0.64872)
(-0.445222 -0.160622 -0.240122)
(0.164651 -0.202583 0.254212)
(0.178233 -0.0304899 0.391425)
(0.158262 -0.0441309 0.259668)
(0.055801 0.229001 0.233287)
(0.0102321 0.433038 0.250255)
(0.185395 0.261161 0.163018)
(0.257514 0.467521 0.483364)
(-0.0443889 0.306645 -0.185904)
(0.0872042 -0.2855 0.429072)
(0.0212742 -0.249187 0.485889)
(0.0250369 -0.0382427 0.55452)
(0.0451337 0.0643415 0.467089)
(0.0621244 0.212287 0.147339)
(0.101455 0.630791 0.396983)
(0.389607 0.0805986 0.144743)
(-0.130128 0.902482 0.744259)
(-0.635225 -0.307013 -0.285338)
(0.089958 -0.165722 0.0254583)
(-0.274385 -0.428865 0.326072)
(-0.0558887 -0.174119 0.411986)
(-0.0429863 -0.01042 0.640535)
(0.0112874 0.176305 0.552064)
(0.00597976 0.314373 0.267647)
(0.0292858 0.457427 0.324833)
(0.046317 0.413683 0.327176)
(-0.43464 0.00807657 0.062002)
(-0.0287522 -0.0329906 0.0568547)
(0.45306 -0.14517 0.187311)
(-0.170652 -0.412057 0.339368)
(-0.0374389 -0.128151 0.40582)
(0.00232723 -0.0145596 0.648568)
(0.0565295 0.0565094 0.550679)
(0.0340536 0.259774 0.679885)
(-0.161434 0.0508084 0.178245)
(0.350115 0.481198 0.358974)
(0.161063 0.531742 -0.0347933)
(-0.100476 -0.0217 -0.0125416)
(0.497809 -0.0816199 0.183808)
(-0.157492 -0.373322 0.359728)
(0.0184333 -0.356128 0.392131)
(-0.153229 -0.088951 0.810172)
(0.0129088 0.0721313 0.759044)
(0.0222982 0.549319 0.61918)
(0.438228 0.0384399 0.00356754)
(-0.212644 1.03443 0.839404)
(-0.178621 -0.00827605 -0.0240559)
(0.604168 -0.1514 0.223665)
(0.0540114 -0.0998291 0.18782)
(-0.108853 -0.312605 0.556593)
(-0.114319 -0.033392 0.767267)
(0.0695247 0.0849773 0.778595)
(0.0740727 0.142647 0.330818)
(-0.1401 0.316702 1.04432)
(-0.219856 0.00102653 0.220331)
(0.611489 -0.0047245 0.311147)
(-0.0110928 -0.047732 0.119257)
(-0.0845697 -0.318443 0.557794)
(-0.069118 -0.169178 0.81552)
(0.433371 0.118953 0.0748588)
(-0.0847637 -0.0281075 0.977425)
(-0.269516 0.0644364 0.238979)
(0.648361 -0.0262926 0.257471)
(0.245314 -0.132698 0.0629823)
(0.228399 -0.12719 0.114948)
(0.324208 0.0480514 0.46538)
(0.0667041 -0.0457193 -0.149861)
(0.203424 0.00260177 0.0171436)
(0.148701 0.0906433 -0.0269607)
(0.274113 0.00443483 0.0252558)
(0.113887 0.126875 -0.0253215)
(-0.10766 0.105109 0.0375636)
(0.271053 -0.0773697 -0.0713796)
(-0.228585 0.085158 0.0748012)
(0.0556579 0.028962 0.0551366)
(0.162216 -0.10642 -0.0152714)
(0.348827 0.676629 -0.0440988)
(-0.091929 0.15711 0.136158)
(-0.121374 -0.161052 -0.0691867)
(0.0892752 -0.120922 0.0277231)
(0.179779 0.587032 -0.146147)
(0.36579 0.149501 0.000818021)
(0.175164 0.801809 -0.0184334)
(-0.442358 -0.149951 0.272726)
(0.200785 0.317237 -0.0214726)
(0.0571712 0.746813 0.00139227)
(0.357797 0.330234 0.00384061)
(0.392493 0.519872 0.0217602)
(-0.0452927 0.310608 0.170363)
(0.0612135 -0.376048 0.0703899)
(-0.0094172 -0.377192 -0.123306)
(1.11946 0.625931 0.38161)
(0.227301 0.143707 0.00300761)
(0.136425 0.639181 -0.0619821)
(0.386759 0.195342 0.0140942)
(-0.0096575 0.970464 -0.00391599)
(-0.623784 -0.304751 0.304773)
(0.148906 -0.191813 -0.0303611)
(-0.277928 -0.472767 -0.169492)
(0.0243777 -0.418046 -0.0760042)
(0.785151 0.0468327 0.181607)
(1.39961 0.260654 -0.364401)
(0.214528 0.340002 0.0139674)
(0.103569 0.736037 0.0337717)
(0.169463 0.465973 0.0480089)
(-0.429045 -0.00916584 -0.0295433)
(-0.0345177 -0.0351577 -0.0549822)
(0.433326 -0.130772 -0.0150419)
(-0.207426 -0.440448 -0.00246308)
(0.0589175 -0.38836 -0.0935319)
(0.75027 0.271568 0.38602)
(0.632896 0.18285 -0.196117)
(0.41229 0.253586 0.00992235)
(0.0674591 0.547777 0.511952)
(0.542056 0.531481 0.0935673)
(0.250857 0.532651 -0.0478832)
(-0.0949538 -0.0517132 0.0359238)
(0.480521 -0.074787 -0.0138822)
(-0.133231 -0.395041 -0.156296)
(0.0708103 -0.570321 -0.0429833)
(0.316896 -0.180902 0.068032)
(1.42703 0.0990336 -0.0232782)
(0.261511 0.206736 0.182665)
(0.123596 0.368833 0.178304)
(-0.126834 1.15403 -0.0115408)
(-0.151739 0.00505346 -0.178236)
(0.655606 -0.235462 -0.0499458)
(0.0134351 -0.237671 0.0539314)
(0.105608 -0.398209 0.123296)
(0.278991 -0.221933 0.155107)
(1.16422 0.553274 -0.0865382)
(0.0747677 0.240867 0.0786083)
(0.152571 0.435894 0.131718)
(-0.208273 -0.0422004 -0.195702)
(0.816434 -0.149681 0.0276862)
(-0.0112956 -0.25875 0.0771853)
(0.0836881 -0.40984 0.128264)
(0.0144514 -0.563578 0.0234629)
(0.0613699 -0.284847 0.146362)
(-0.0544516 -0.161409 0.0614334)
(-0.266086 0.0700277 -0.231398)
(0.810771 -0.128161 0.0340913)
(0.149324 -0.206826 0.0631286)
(0.23513 -0.20299 0.0507713)
(0.449604 -0.0765847 0.0549026)
(0.111886 -0.0620203 0.205241)
(0.206569 0.00361051 -0.00373382)
(0.14716 0.0896204 0.0223924)
(0.271261 0.00410186 -0.016704)
(0.111534 0.126751 0.0177334)
(-0.252716 0.0338235 -0.0510297)
(0.338631 0.0479776 0.00891771)
(-0.213469 -0.0066878 0.0320218)
(0.263813 -0.0289688 -0.0650267)
(0.106897 -0.0395769 -0.0482099)
(-0.201033 0.0586015 -0.0608011)
(0.280597 -0.039308 0.125319)
(-0.190068 0.0273407 -0.038723)
(0.0545912 -0.223434 -0.29666)
(0.0143494 -0.0402481 -0.00357813)
(0.227057 0.614735 -0.0979579)
(-0.0840892 0.192468 -0.0299048)
(-0.118457 -0.190965 0.159382)
(0.701319 -0.118535 -0.0732282)
(0.196018 -0.139802 -0.314026)
(0.088184 -0.0293895 -0.529322)
(-0.0141515 0.652182 -0.172328)
(0.267774 0.229265 -0.0150111)
(0.123786 0.791871 -0.12079)
(-0.399623 -0.142636 0.219594)
(0.493405 0.0953414 0.0189516)
(-0.0958897 -0.555032 -0.383606)
(-0.108701 -0.425058 -0.408178)
(-0.153859 -0.0476811 -0.530975)
(-0.0443867 0.115451 -0.509712)
(-0.0552168 0.724019 -0.214871)
(0.241674 0.273614 -0.0239722)
(0.299925 0.520276 -0.0388722)
(0.00635637 0.330782 -0.124668)
(-0.305517 -0.245898 0.206618)
(0.114771 -0.317577 -0.175102)
(-0.176713 -0.186011 -0.153604)
(-0.318335 -0.163985 -0.440421)
(0.0246727 -0.071028 -0.431512)
(-0.017194 0.198333 -0.33072)
(-0.0706898 0.740897 -0.243985)
(0.287896 0.277804 -0.0197747)
(0.0225863 0.938173 -0.224938)
(-0.555334 -0.245379 0.291555)
(-0.23071 -0.0448766 -0.236108)
(0.744716 -0.0765162 -0.132998)
(-0.0585906 -0.266376 -0.270208)
(0.128593 -0.222967 -0.420738)
(-0.000490376 -0.0473546 -0.669428)
(-0.0603318 0.155646 -0.285142)
(-0.059085 0.729642 -0.267952)
(0.304037 0.281692 -0.0750259)
(0.517678 0.466917 -0.0236847)
(0.0555371 0.148734 0.0258366)
(-0.200728 0.0324926 -0.177593)
(0.715709 -0.132185 -0.15461)
(0.0479928 -0.280349 -0.195178)
(-0.231425 -0.359493 -0.494891)
(-0.101816 -0.0201809 -0.480605)
(0.00361501 0.121222 -0.359127)
(0.0551549 0.465159 -0.270594)
(0.536197 0.23122 -0.0565642)
(0.240153 0.581777 -0.285196)
(0.277507 -0.020936 -0.114823)
(-0.192665 0.0736999 -0.0393353)
(0.627493 -0.0993567 -0.0531181)
(-0.185621 -0.386286 -0.454769)
(-0.0931193 -0.0480822 -0.474839)
(0.0018884 0.0946177 -0.404278)
(-0.0264535 -0.00253336 -0.358861)
(-0.223325 1.10374 -0.471281)
(0.289821 -0.0815894 -0.100181)
(-0.190694 0.0400665 -0.0279497)
(0.679266 -0.0752025 -0.00973785)
(0.133771 -0.392614 -0.411399)
(0.221049 -0.306277 -0.37275)
(0.491412 0.0159648 -0.112235)
(0.189509 0.00143664 -0.209243)
(-0.26072 0.0836319 0.0533528)
(0.797678 -0.139711 0.0234244)
(0.289072 -0.1037 -0.0288554)
(-0.37169 0.139591 0.116934)
(0.164187 -0.135433 0.0238937)
(0.163363 0.062004 0.0186758)
(0.288397 -0.00439248 -0.00375293)
(0.0155975 0.191285 -0.00320707)
(0.110716 -0.0822534 -0.423654)
(0.0247117 -0.307138 -0.261914)
(0.145375 -0.021472 -0.164588)
(-0.378937 0.0619128 0.218964)
(-0.071936 -0.317683 -0.444946)
(0.301001 -0.0970851 -0.4447)
(0.208632 0.00106158 -0.103821)
(-0.238604 0.165651 0.0563418)
(-0.205461 -0.34138 -0.438645)
(0.248447 -0.130362 -0.579027)
(0.145449 -0.024524 -0.100399)
(0.11768 -0.116339 -0.211324)
(0.131366 0.669584 -0.0515123)
(-0.1225 0.119013 -0.162307)
(-0.119273 -0.120718 0.224205)
(0.344938 0.221333 -0.0949565)
(0.195389 -0.304774 -0.300325)
(0.120877 -0.368386 -0.343298)
(0.160603 -0.147378 -0.333023)
(-0.0974959 -0.0447586 -0.255829)
(0.0705986 0.00838422 -0.229916)
(0.158482 0.103253 -0.198516)
(0.0212988 0.764224 -0.112202)
(-0.377216 -0.124401 0.142939)
(0.453019 0.133947 -0.00193558)
(-0.403174 -0.0313889 0.0555259)
(0.15772 -0.0418568 -0.0432823)
(-0.183606 0.201473 0.0172815)
(0.586719 -0.00478146 -0.185899)
(0.193321 -0.0189195 -0.253073)
(0.1598 0.0568945 -0.213357)
(0.122816 0.136878 -0.246374)
(0.211099 0.565978 -0.0151468)
(-0.0630338 0.252749 -0.261497)
(-0.208313 -0.177323 0.287066)
(-0.31929 -0.154442 -0.00503059)
(0.787306 -0.0617299 -0.136303)
(0.0895118 -0.0251935 -0.259091)
(0.140847 0.0056121 -0.247991)
(0.0811467 0.0828035 -0.264805)
(0.194601 0.143224 -0.167459)
(-0.0794221 0.900238 -0.150572)
(-0.641556 -0.264671 0.246059)
(0.82623 0.334648 0.0413229)
(-0.372885 0.169694 0.0803392)
(0.771942 -0.0434711 -0.147695)
(0.288573 -0.0972088 -0.294929)
(-0.039176 0.0333458 -0.283834)
(0.145855 0.0971244 -0.195067)
(0.0933806 0.300564 -0.189709)
(-0.431413 0.0845369 0.283826)
(0.658344 0.0125571 -0.0887072)
(0.0392159 -0.188576 0.0312015)
(0.256509 0.0590912 -0.115267)
(-0.240937 0.0252254 0.0797116)
(0.703246 -0.0280957 -0.232343)
(0.199543 -0.0103783 -0.22211)
(0.170698 -0.0893374 -0.297583)
(0.426699 0.53988 -0.102231)
(0.0239045 0.219719 -0.359209)
(-0.214662 0.0985598 0.00673244)
(0.807781 0.0227415 -0.166235)
(0.239766 0.0465281 -0.202805)
(-0.366854 0.186786 0.195428)
(0.160379 0.0931246 0.0988538)
(0.332532 0.00554965 -0.127383)
(0.117417 -0.0365233 -0.280976)
(0.212542 -0.204188 -0.283387)
(-0.223126 0.228594 -0.0889315)
(0.0528419 -0.071482 0.167918)
(0.141987 -0.147596 -0.300235)
(-0.309818 0.0669874 0.01149)
(0.268544 0.165145 -0.0329772)
(-0.124887 -0.0526021 0.143264)
(0.149013 -0.146107 -0.315776)
(0.127323 -0.0620016 -0.230568)
(-0.269521 -0.0489774 -0.0393577)
(0.13206 0.138855 0.0630384)
(0.0795285 -0.00466036 -0.0733562)
(0.0542762 0.00275343 0.0892492)
(0.180397 0.110465 0.0577198)
(0.123005 -0.0180263 -0.00747263)
(0.132285 -0.00225554 0.0163476)
(0.0681129 0.152416 -0.0464447)
(0.0680271 -0.069714 0.00628993)
(0.164712 0.0779803 -0.0304962)
(0.00448635 -0.0244122 0.0789168)
(0.24874 0.0985201 -0.131721)
(-0.156692 0.00143097 0.225554)
(0.387444 0.160561 -0.165544)
(-0.280147 -0.0363274 0.148035)
(0.106125 0.0455581 0.0288143)
(0.133565 0.0310313 -0.0373531)
(0.0593359 0.0184117 0.0822431)
(0.211159 0.0773541 -0.129181)
(-0.0408009 -0.00830016 0.165525)
(0.331823 0.181699 0.0139621)
(-0.271723 -0.0341222 0.0360901)
(0.102406 0.000879851 -0.0182142)
(0.146527 0.0658575 -0.0239837)
(0.0603571 0.014444 0.0643885)
(0.216831 0.0763069 -0.0974577)
(-0.0376985 0.0110254 0.173576)
(0.366348 0.139446 -0.251129)
(-0.297233 -0.00109349 0.301479)
(0.173377 0.0750839 -0.0253693)
(0.0822363 0.0348891 0.0321507)
(0.219946 0.0854099 -0.0866779)
(0.0127978 0.0123473 0.15437)
(0.34704 0.143427 -0.248448)
(-0.241644 -0.00607409 0.237215)
(0.223019 0.0730406 -0.101118)
(0.0238852 0.0359001 0.147406)
(0.318598 0.115587 -0.223146)
(-0.0988459 0.0175199 0.277737)
(0.0751754 0.0458191 0.0941468)
(0.333411 0.123615 -0.181064)
(0.101616 0.0184984 -0.0377745)
(0.0420388 0.00753487 0.035427)
(0.0902637 0.00869151 0.00431301)
(0.114487 0.0223354 -0.0334556)
(0.0242709 0.000454533 0.134715)
(0.114642 0.0102834 -0.0322495)
(0.110233 0.00761333 -0.0189049)
(0.0933196 0.0160902 0.114638)
(0.0432889 0.0210896 -0.0671326)
(0.0674009 -0.00368322 -0.581483)
(0.0651521 0.0419157 -0.576442)
(-0.00479804 -0.0385852 -0.206199)
(-0.015137 0.0767308 -0.221327)
(0.231724 0.0916092 -0.0699346)
(0.0536038 0.0312975 -0.719962)
(0.0339001 -0.135249 0.615696)
(0.0588066 0.100629 -0.643087)
(0.52567 -0.04871 0.244934)
(-0.0287146 0.0116785 -0.205895)
(0.104194 -0.0918346 0.327976)
(0.202861 0.209361 -0.141849)
(0.100321 0.0849418 -0.754165)
(0.0776695 -0.405661 0.744798)
(0.0730951 0.522313 -0.677575)
(0.061265 -0.0839186 0.427273)
(0.10924 0.0501865 -0.27724)
(0.0187081 -0.46447 0.320973)
(0.0101973 0.290156 -0.251975)
(-0.105725 0.0746676 -0.552425)
(-0.0818898 -0.409451 0.743983)
(-0.12939 0.245787 -0.526587)
(0.0924593 -0.189329 0.259896)
(0.0508419 0.0775334 -0.407743)
(0.060011 -0.0301367 0.299023)
(0.0442094 0.105522 -0.394651)
(0.544765 0.00936803 0.21032)
(0.0485557 -0.0300783 0.00908296)
(0.0554963 -0.00902089 -0.0247338)
(0.147296 -0.0110269 -0.205682)
(0.200064 0.0350357 -0.255538)
(0.551126 -0.110028 0.204077)
(-0.0180729 0.00274031 0.0521994)
(0.131949 -0.0118941 -0.228368)
(0.134102 0.0513957 0.115566)
(0.160861 0.00794693 -0.213148)
(0.0567207 0.0149905 0.0143079)
(0.0303144 0.0140157 -0.0132468)
(0.0867703 -0.0469749 0.0456048)
(0.0804442 0.00581909 -0.00555422)
(0.550657 0.0155946 0.211864)
(0.232716 0.0631241 -0.0438029)
(0.13233 0.0500784 -0.274681)
(0.185931 -0.0246206 0.279971)
(0.187743 0.0636771 -0.0788542)
(0.0365003 0.0385556 0.0155981)
(0.151239 0.0390299 -0.202914)
(0.127981 -0.0405391 0.225771)
(0.0811733 -0.0952607 -0.377658)
(0.0982473 -0.105966 0.0336453)
(0.118796 0.000313778 0.0110635)
(0.380746 -0.127695 -0.00855113)
(0.239659 0.0675003 -0.0603508)
(0.0984123 -0.284066 0.279884)
(0.211122 0.331891 -0.261497)
(0.766088 -0.0867854 0.055583)
(0.0685272 -0.424247 0.04734)
(0.135901 0.399068 0.0611368)
(0.2043 0.065103 -0.290179)
(-0.0400062 -0.397255 0.410112)
(0.124905 0.184545 -0.388369)
(0.0244111 -0.346233 -0.0110828)
(0.981604 0.747476 0.306536)
(0.195661 -0.113604 -0.498617)
(0.100068 0.00377585 0.329354)
(0.0745749 0.0880127 -0.490042)
(0.390968 -0.0864268 -0.018178)
(0.289537 -0.214819 -0.346368)
(0.0811637 0.0835855 0.437927)
(-0.0596517 -0.164668 -0.505966)
(0.239506 0.286513 -0.0737986)
(0.0390409 -0.261725 0.0327282)
(0.373894 -0.175931 0.0728653)
(0.0952897 0.175985 -0.419914)
(-0.130348 -0.535524 0.474378)
(0.0320139 0.270995 -0.206632)
(-0.121706 -0.366915 -0.00142314)
(1.00782 0.701074 0.281228)
(-0.00346998 -0.635106 -0.0654974)
(-0.0391547 0.275575 0.102373)
(0.0759743 0.0806706 -0.503631)
(0.0610872 -0.291525 0.489553)
(0.0885843 0.210627 -0.449653)
(1.0051 0.73616 0.299901)
(0.0528888 -0.428854 -0.0478506)
(0.880651 0.217147 0.294424)
(0.0998245 -0.131547 -0.504622)
(0.00783144 -0.00517481 0.590826)
(-0.0358688 0.164961 -0.548115)
(0.436782 -0.131378 -0.00343335)
(0.945413 0.233795 0.320254)
(1.18874 0.334858 -0.415812)
(0.162743 -0.29346 -0.595231)
(0.0303444 0.0184223 0.58927)
(-0.0474383 0.113067 -0.604173)
(1.22579 0.292954 -0.400351)
(0.415772 -0.145982 0.0235229)
(0.512445 0.0914925 -0.373394)
(0.117911 0.0242323 -0.482536)
(-0.100122 -0.0692025 0.31321)
(0.0363472 0.165831 -0.628972)
(0.377947 0.0766817 -0.107073)
(0.425516 -0.12963 -0.176)
(0.210547 -0.107841 0.200944)
(1.90201 0.171249 -0.00954702)
(0.61776 0.0474433 -0.0742058)
(0.401804 -0.0273377 -0.115437)
(0.0514809 -0.0514029 0.05868)
(0.0437839 0.00628582 -0.0128594)
(0.276485 -0.0661893 -0.157067)
(0.107049 0.022415 0.101251)
(0.615078 -0.148615 -0.0656846)
(-0.0517111 0.0217341 -0.0091284)
(0.413369 -0.0146767 -0.112778)
(0.287325 -0.0222412 0.0541057)
(0.0286558 0.0297632 -0.0029805)
(0.0652365 -0.0573315 0.0245491)
(0.0662287 0.0206432 -0.00611141)
(0.281551 -0.0480102 -0.153572)
(0.085817 0.0289939 0.133086)
(0.206107 -0.0774829 -0.14706)
(0.111329 0.0334765 0.198045)
(0.661006 -0.0908673 -0.0781653)
(0.535028 -0.061909 -0.147655)
(0.0168691 0.0273003 -0.0434143)
(0.256014 0.0166938 0.0982745)
(0.473613 -0.140503 -0.263303)
(0.139702 0.196283 0.2789)
(0.207064 -0.389562 0.0859266)
(0.194 0.36964 0.0184294)
(0.584241 -0.0225927 -0.100387)
(0.500881 -0.0938602 -0.0915537)
(0.111198 -0.560819 -0.282235)
(0.150929 0.440983 0.170741)
(0.0215727 -0.351676 -0.0619834)
(1.10284 0.650932 0.386666)
(0.416149 -0.185434 -0.249393)
(0.0818931 0.18243 0.354027)
(0.0550603 -0.369003 -0.251446)
(0.145115 0.1883 0.290232)
(0.373846 -0.10841 0.0880088)
(1.13266 0.679764 0.400802)
(0.0582934 0.0209008 -0.544)
(-0.0523153 -0.0511296 0.45795)
(0.026801 0.0123976 -0.508312)
(-0.0744501 0.164349 0.536301)
(0.35869 -0.215713 0.0817343)
(1.00058 0.088873 0.251616)
(1.33354 0.277998 -0.383881)
(-0.0425095 0.180234 -0.594503)
(-0.0417888 -0.143511 0.513846)
(0.0117123 -0.12385 -0.638869)
(0.146944 0.206138 0.566811)
(0.362539 -0.16058 0.107307)
(0.825828 0.317581 0.294571)
(0.72883 0.228236 -0.413286)
(0.0953783 0.321993 -0.392839)
(-0.0277902 -0.137837 0.456039)
(-0.0320849 0.0480284 -0.656554)
(0.184787 0.168594 0.567641)
(0.713144 -0.115439 -0.0362245)
(0.241986 -0.104067 0.099995)
(1.43892 0.103908 -0.0191141)
(-0.007691 0.219326 -0.398741)
(0.0319828 -0.00697768 0.463727)
(0.0670768 0.0318838 -0.498053)
(0.0426849 0.131977 0.454131)
(0.439627 -0.0194913 -0.042468)
(0.114135 0.0220995 0.39368)
(0.0748997 0.0857171 0.397939)
(0.441622 -0.0070998 -0.0392097)
(0.192673 0.0350052 0.108904)
(0.0528855 0.0137377 0.32853)
(0.0803662 -0.0586562 -0.456522)
(0.0894339 0.16938 0.404441)
(0.642116 -0.13474 -0.0566767)
(0.442457 0.0500847 -0.0486977)
(0.0632082 0.0321494 0.386951)
(0.0599076 -0.152001 -0.44081)
(0.11898 0.230316 0.385063)
(0.0245632 0.247243 -0.600564)
(0.0674803 -0.0593358 0.596085)
(0.0467799 0.137988 -0.56863)
(-0.00386239 -0.0629142 0.548291)
(0.0198819 0.102287 -0.40658)
(0.00449268 -0.236964 0.415548)
(0.0452261 0.11299 -0.347675)
(0.0149754 0.0866124 -0.651087)
(0.13525 -0.00800366 0.565767)
(0.0163284 0.0939911 -0.642995)
(0.00204601 0.0634295 0.441915)
(0.0450938 -0.0134717 -0.382873)
(-0.020461 0.00728959 0.518159)
(-0.0533526 0.108021 -0.452756)
(0.0778762 0.0319662 -0.674426)
(0.123738 0.00913898 0.579485)
(0.0635161 0.0972327 -0.675453)
(-0.0115166 0.140015 0.476449)
(0.0303139 -0.00360995 -0.480482)
(-0.0237149 0.0119155 0.534907)
(-0.0272719 0.0929478 -0.513093)
(0.427472 -0.00528155 0.188826)
(0.806829 -0.0742186 0.110859)
(0.386788 -0.00917778 0.191984)
(0.501311 -0.0600261 0.266864)
(0.302718 -0.0214159 0.053109)
(0.289437 0.0204192 -0.169441)
(0.0788216 -0.270252 0.323001)
(0.289678 0.119889 -0.0740419)
(0.45149 -0.056881 0.033744)
(0.102181 0.131338 -0.366188)
(0.0906676 0.00776494 0.299544)
(0.197696 0.0527033 -0.338559)
(1.11123 0.323097 0.21716)
(1.05939 0.0106773 0.235813)
(0.197738 0.115391 -0.501617)
(0.0359856 0.0577844 0.476673)
(0.894122 -0.196292 0.21782)
(0.164159 0.131368 -0.453321)
(0.756658 0.199284 -0.151797)
(1.61649 0.273053 0.0984947)
(0.119016 -0.451111 -0.486333)
(0.0234531 0.201802 0.559353)
(0.0839456 -0.225327 -0.575714)
(0.318715 0.243932 -0.0405603)
(0.238893 -0.34801 0.0623094)
(1.22311 0.385021 -0.445739)
(0.394738 -0.202006 0.0129134)
(0.157411 0.18431 -0.392953)
(-0.117518 -0.57194 0.497392)
(0.0798549 0.340766 -0.240012)
(0.0364475 -0.394189 -0.0617988)
(0.670337 0.123462 0.205964)
(-0.0266248 -0.637891 0.00854721)
(0.198894 0.103738 0.0498997)
(0.00190269 0.153632 -0.53752)
(0.0145806 -0.285671 0.485207)
(0.0996264 0.102432 -0.481495)
(0.807366 0.210344 0.27896)
(1.19733 0.231363 -0.358694)
(0.00812617 -0.31005 0.123752)
(0.429432 0.48836 0.525341)
(0.396158 -0.168262 -0.349688)
(0.0606478 0.0849772 0.523115)
(0.0264748 0.0298828 -0.450146)
(0.26972 0.28216 -0.0446422)
(0.11926 -0.262172 0.0133373)
(0.625265 0.0960742 -0.374776)
(0.470951 -0.13342 -0.0958784)
(-0.0503345 0.104102 -0.599927)
(0.0609723 -0.460153 0.529533)
(0.124731 0.408594 -0.279919)
(0.204044 0.0690395 -0.0783007)
(0.128959 -0.553237 -0.0444748)
(0.166962 0.232601 0.0616859)
(0.221273 -0.325401 -0.714821)
(0.13393 0.141664 0.591699)
(0.187016 -0.00787828 -0.689238)
(0.286295 0.309906 -0.0595781)
(0.394212 -0.167664 -0.115026)
(1.8993 0.174233 0.0371731)
(0.171322 -0.200247 -0.185759)
(0.0236119 0.171131 -0.794)
(-0.05212 -0.444649 0.596542)
(0.0923178 0.266196 -0.676426)
(0.272155 -0.199101 0.176763)
(1.78229 0.164295 -0.0265419)
(0.015339 -0.406599 0.0288425)
(0.209321 0.195054 0.00429568)
(0.0713208 0.0336536 0.0492159)
(-0.0331641 0.0520047 0.0586537)
(-0.0802907 0.111621 0.0452473)
(-0.138336 0.0107358 -0.0141249)
(-0.016248 0.0652764 0.0310639)
(0.00731221 0.00494708 0.0808544)
(0.269586 -0.0384282 -0.0110465)
(0.0325768 0.0256853 -0.00868227)
(0.392641 -0.146048 0.0756386)
(0.186546 -0.0743764 -0.176012)
(0.178325 0.0296402 0.204023)
(0.144071 0.113787 -0.329437)
(-0.0448098 0.0127737 0.298539)
(1.01698 -0.104134 -0.053159)
(0.756561 -0.161493 0.14806)
(0.416777 -0.164684 0.0281424)
(0.43053 0.0394395 -0.036152)
(1.28359 -0.102187 -0.018973)
(0.380592 0.135433 -0.0869547)
(0.521832 -0.0190932 0.0443452)
(1.33417 -0.565255 0.0964691)
(0.476353 -0.0774889 -0.182594)
(0.44766 -0.0745529 -0.250525)
(1.36139 0.205292 0.115419)
(0.890469 0.497258 -0.185638)
(0.694611 0.123551 -0.216326)
(0.542812 0.0367086 0.0510902)
(0.369475 0.0510438 -0.127432)
(0.0537669 -0.277686 0.064667)
(0.199128 -0.161229 0.123646)
(0.074366 0.164382 -0.174986)
(0.186454 -0.392822 0.502223)
(-0.0264755 0.262932 -0.575944)
(-0.0148612 -0.0941603 0.449103)
(1.11136 0.561073 0.333275)
(0.066329 -0.552105 -0.128864)
(-0.00550679 0.350304 0.00750136)
(0.0205608 -0.330671 -0.381728)
(0.177115 0.193414 0.363578)
(-0.0985645 -0.367378 -0.33883)
(0.042817 0.646631 0.617211)
(0.059188 -0.459288 -0.123321)
(0.83483 0.0400509 0.208339)
(-0.160402 -0.104676 -0.651612)
(-0.0661079 0.156642 0.519462)
(-0.0334668 -0.195771 -0.369117)
(-0.126143 0.215235 0.406471)
(0.911643 0.351516 0.126708)
(0.816511 0.255195 -0.142325)
(1.31722 0.103875 -0.520798)
(1.02859 0.358685 0.0219917)
(0.933845 0.293849 -0.219936)
(0.741749 0.130932 0.229784)
(0.518933 0.215972 -0.109772)
(0.0746121 -0.580218 0.0782815)
(1.4203 0.362137 -0.38337)
(0.379968 -0.221892 0.0729949)
(0.0536124 0.193545 -0.159524)
(0.249521 -0.38302 0.439482)
(-0.0427616 0.240029 -0.383537)
(-0.0132662 -0.138474 0.449632)
(1.35988 0.197022 -0.323663)
(0.0251009 -0.415685 0.0920687)
(0.686225 0.395674 0.448672)
(0.0763247 -0.0986507 -0.573628)
(0.0376097 0.234519 0.430193)
(-0.0150494 -0.233552 -0.51495)
(0.0124508 0.355103 0.393518)
(0.882626 0.32781 0.14888)
(0.842705 0.111857 -0.0493888)
(1.41023 -0.0423699 0.0995709)
(0.406112 0.420153 0.011392)
(0.499706 0.121451 0.362921)
(0.450589 0.189672 -0.0367383)
(0.119545 -0.269055 0.0628171)
(0.801591 0.214027 -0.417503)
(0.525506 -0.199083 0.0092085)
(0.0786212 0.242923 -0.19694)
(0.259925 -0.389065 0.479538)
(0.0327536 0.149016 -0.36848)
(0.0255305 -0.0479665 0.474524)
(0.468056 0.186681 -0.105521)
(0.0753003 -0.617371 -0.105475)
(0.165708 0.195566 0.0132417)
(0.00305506 -0.0502309 -0.72313)
(0.226803 0.186269 0.534546)
(-0.0252581 -0.32448 -0.479367)
(0.048275 0.179721 0.323706)
(0.316145 0.249363 0.0877963)
(1.31416 0.39581 0.0746719)
(1.52089 0.107229 -0.122052)
(0.799228 0.329232 -0.116609)
(1.34171 0.170894 0.0459854)
(0.457631 0.246393 0.20934)
(0.264015 0.276106 -0.275643)
(0.0543191 -0.235465 -0.0217413)
(1.41091 0.111925 0.0222482)
(0.301915 -0.0536361 0.0118863)
(0.0460881 0.295277 -0.229137)
(0.269739 -0.333261 0.468788)
(0.0927397 0.153961 -0.408003)
(0.0797593 -0.0377276 0.447601)
(1.5011 0.114262 -0.0508877)
(0.045975 -0.364895 0.0786314)
(0.129594 0.1794 0.0255141)
(0.0476973 0.000735613 -0.599492)
(0.0654601 0.123438 0.413451)
(-0.0204584 -0.282698 -0.38326)
(0.101232 0.14525 0.31336)
(0.271405 -0.0339196 -0.0752598)
(0.179374 0.0446587 0.0704789)
(-0.0402983 -0.0882598 -0.129615)
(0.159963 0.154158 0.482706)
(0.348635 0.0071459 -0.0221649)
(0.473369 -0.0730602 -0.132339)
(0.462053 -0.0354299 -0.279217)
(0.393241 0.0123324 0.0764067)
(0.606396 0.0146228 0.0335192)
(0.0662304 0.0636344 0.147862)
(0.288213 -0.0841646 -0.276982)
(0.0309861 0.264782 0.196962)
(0.0331842 -0.0872771 -0.484913)
(0.0119617 0.158101 0.643927)
(-0.028061 -0.229631 -0.709223)
(0.0715304 0.150918 0.698716)
(0.293416 0.030794 0.0457717)
(0.0603999 -0.611991 -0.340557)
(0.0207484 0.395786 0.117852)
(-0.000589495 -0.198389 -0.382441)
(0.0372574 0.224252 0.603593)
(0.0645946 -0.625717 -0.6309)