/*--------------------------------*- C++ -*----------------------------------*\
  =========                 |
  \\      /  F ield         | OpenFOAM: The Open Source CFD Toolbox
   \\    /   O peration     | Website:  https://openfoam.org
    \\  /    A nd           | Version:  10
     \\/     M anipulation  |
\*---------------------------------------------------------------------------*/
FoamFile
{
    format      ascii;
    class       volVectorField;
    location    "0.05";
    object      wallShearStress;
}
// * * * * * * * * * * * * * * * * * * * * * * * * * * * * * * * * * * * * * //

dimensions      [0 2 -2 0 0 0 0];

internalField   uniform (0 0 0);

boundaryField
{
    inlet
    {
        type            calculated;
        value           nonuniform List<vector> 0();
    }
    outlet
    {
        type            calculated;
        value           nonuniform List<vector> 0();
    }
    walls
    {
        type            calculated;
        value           nonuniform List<vector> 0();
    }
    drone
    {
        type            calculated;
        value           nonuniform List<vector> 
13275
(
(-0.022539 -0.00340893 -0.00461191)
(-0.00940322 -0.00876585 -0.00229774)
(-0.00529979 -0.010141 -0.00324203)
(-0.00122634 -0.000493072 7.55238e-05)
(0.000410237 0.00024213 0.00134784)
(-0.0124235 -0.00273289 9.82967e-06)
(1.68495e-05 -0.000355159 0.000976174)
(-0.00261489 -0.00274187 0.000874691)
(-0.00317268 -0.00400102 0.00144141)
(-0.00707814 -0.00828671 -0.0022187)
(-0.011926 0.000902663 -0.00305295)
(-0.005002 0.00395052 -0.0010889)
(-0.00415814 0.00489149 3.34573e-05)
(-0.00905858 0.0045311 7.06122e-05)
(-0.00198651 0.00585948 0.000580533)
(0.000500254 0.00111444 -0.000410872)
(-0.0109774 0.00467462 -0.00833797)
(-0.0090734 0.00270206 -0.0113286)
(-0.0131338 -0.00319378 -3.4724e-06)
(-0.00343542 0.00473443 0.000279546)
(-0.00148609 4.56548e-05 0.00104562)
(-0.00153863 0.000870558 0.000921513)
(-0.0175824 -0.0108072 0.00141938)
(-0.00191119 -0.00176232 0.000334373)
(-0.00229105 -0.00137578 0.000587801)
(-0.00020148 -0.000564065 -0.000418754)
(0.00106735 0.000388363 0.000851178)
(-0.0157338 -0.00487416 0.000689485)
(-0.0140909 -0.00367462 0.00147883)
(-0.00202542 -0.00151279 0.000904801)
(-0.00886952 0.000171349 -0.00903452)
(-0.0095044 0.0016404 -0.00584539)
(-0.00961398 0.00493071 -0.000870318)
(-0.00600872 0.00441766 0.00398124)
(0.000166425 -0.00261148 -2.10988e-05)
(-0.00124747 0.00236423 0.00176623)
(-0.0220378 -0.00307402 0.000374231)
(-0.0182812 -0.00116954 0.000212221)
(-0.0177897 -0.00659335 -2.33082e-05)
(-0.0156374 -0.0063327 -0.000167628)
(-0.0103967 0.00299474 -0.00266715)
(-0.00565194 0.00418311 0.000190504)
(-0.00826225 0.00663139 -0.00065013)
(-0.0132553 0.00540457 -0.0123407)
(-0.00871145 0.00427957 -0.00163102)
(-0.00996484 0.00472586 -0.000795339)
(-0.021834 0.000401679 0.00110235)
(0.000339105 0.00104273 -0.000800778)
(-0.00986188 0.00158138 -0.0127906)
(-0.00385471 -0.000142911 -0.00609679)
(-0.00374526 0.00332252 -0.000692946)
(-0.00303379 0.00403096 0.000190868)
(-0.00333823 0.00412654 6.17337e-05)
(-0.00394982 0.0037566 -0.000560911)
(-0.00388245 0.00517793 0.000343416)
(-0.00473403 0.00433757 -0.000664623)
(-0.00489825 0.00440387 -0.000642891)
(-0.00372351 0.00503074 0.00031713)
(-0.0244468 0.00520942 0.00478162)
(-0.00152224 -0.000634168 0.000934396)
(-0.00152568 0.00125088 0.000964919)
(-0.00531186 0.004084 -0.00117993)
(-0.0127506 -0.00491382 -0.000928725)
(0.00100552 -0.000647315 0.000567299)
(-0.016431 -0.00292433 -0.000141112)
(-0.0168494 -0.00480502 -0.000112353)
(-0.0211899 0.000920614 0.000487618)
(-0.00912823 -0.000846877 -4.42505e-05)
(-0.00237646 0.0013802 0.00238619)
(-0.00121045 0.00121395 0.0014273)
(-0.00194482 -9.22542e-05 -0.00102684)
(-0.00539626 -0.00215133 -0.00251172)
(-0.00865007 -0.00613134 -0.0023591)
(-0.00556915 0.000863166 0.000835071)
(-0.00223996 0.000134157 0.000438926)
(-0.00896135 -0.00499226 -0.0026938)
(-0.00345499 0.00057726 -0.000563593)
(-0.0110277 0.00485129 -0.00081407)
(-0.0117154 -0.00135361 0.00385381)
(-0.00579076 -0.00199958 0.00127942)
(-0.00049328 -0.000269801 -0.000641879)
(-0.00930802 0.00585511 0.00955686)
(-0.00802547 0.00603285 0.00488197)
(-0.00435418 0.00109566 -0.000910939)
(-0.00233268 0.000600952 -0.000670717)
(-0.0011549 -5.78202e-05 -0.000306978)
(-0.00396199 0.000843897 -0.000349913)
(-0.0111694 -0.00237204 -0.000113699)
(-0.00900738 -0.00177864 -0.000166166)
(-0.0109873 -0.00555694 0.00318232)
(-0.0105224 0.00277354 -0.00181671)
(-0.0067938 0.00141859 -0.00155899)
(-0.0142005 -0.00336024 -0.000286233)
(-0.0123448 -0.00253242 -0.000413069)
(-0.0108041 0.00270057 -0.00128397)
(-0.0137594 -0.00322228 -0.000739939)
(-0.00707344 0.00175343 -0.00135396)
(-0.01397 -0.00110815 -0.00204825)
(-0.0118139 -0.00216863 -0.00140917)
(-0.0140179 -0.00319502 -0.000106813)
(-0.012622 -0.00281809 -0.000231328)
(-0.00773355 -0.000475895 0.000767371)
(-0.0058141 -0.000716595 0.000500081)
(-0.0188641 -9.76993e-05 0.00109364)
(-0.0104089 0.000303658 -0.00120562)
(-0.0185256 0.000139903 0.000931934)
(-0.0172865 8.69593e-05 0.000950145)
(-0.00801317 0.000171014 -0.00204255)
(-0.0166424 0.000242847 0.000753938)
(-0.00231531 -9.73646e-06 0.00139309)
(-0.00173389 0.000113663 0.0015314)
(-0.00472205 0.00118741 -0.00134328)
(-0.000724782 0.00163828 -0.000302372)
(-0.00111729 0.00146027 -0.000337388)
(-0.00261876 0.000307562 0.00136526)
(-0.0243564 0.0108948 -0.000798949)
(-0.00738032 -0.000910522 0.000551773)
(-0.00703676 0.000743367 -0.000279248)
(-0.0184934 -0.00284784 0.000209699)
(-0.00203684 0.000224479 0.000478686)
(-0.000709966 5.03937e-05 0.000196997)
(-0.00123186 6.10161e-05 0.000703307)
(-0.000603622 0.000136393 0.000262283)
(-0.0022762 -0.000307773 0.000171268)
(-0.000749142 2.36543e-05 0.000197638)
(-0.00128939 -5.22507e-05 0.000617309)
(0.000129934 -9.97652e-05 0.000191695)
(-0.00360892 8.30703e-05 -0.000758245)
(-0.00264638 0.000374652 -0.000111233)
(-0.00364846 -0.00424898 -0.00012387)
(-0.00311833 -0.00257912 -0.000271911)
(-0.000860069 -0.00116248 9.19591e-05)
(-0.00322925 -0.00271872 -0.00050727)
(-0.00297578 -0.00240384 -0.000291967)
(-0.00134363 -0.00160026 5.02534e-05)
(-0.0205003 -0.00311212 -0.00545665)
(-0.00921462 -0.00318693 0.00229451)
(-0.00447458 -0.00438394 0.000214845)
(-0.0219378 0.00100036 0.00111522)
(-0.000148536 -0.00174593 -2.65387e-05)
(0.000147966 0.000655354 0.000283844)
(-0.00109696 0.000464005 -0.000420722)
(-0.00064864 4.88473e-05 0.000128942)
(-0.000398884 0.000182341 0.000115516)
(-0.000556147 8.87064e-05 -4.92192e-05)
(-0.00170932 0.000111735 0.00118634)
(-0.00149732 0.000350929 0.00172769)
(-0.0010254 -0.000469978 -0.00052972)
(-0.000730032 -1.60753e-06 0.000113562)
(0.000167113 -0.000105753 -1.69172e-05)
(-0.000557651 -0.0001117 -5.94756e-05)
(-0.000443812 0.000400954 0.00170453)
(-0.00128198 0.000557674 0.00167714)
(-0.00529457 0.00119717 -0.00199168)
(-0.00426796 0.000286721 0.000592417)
(-0.00210279 0.000118423 0.000792692)
(-0.0186509 0.00201293 0.00276268)
(-0.00193901 0.000156483 0.000720435)
(-0.00290218 0.000173846 0.00110166)
(-0.00453296 0.00032386 0.00125138)
(-0.0105414 0.00409598 -0.00682792)
(-0.00327417 0.000516667 -0.00217898)
(-0.00651396 0.00091257 -0.000624552)
(-0.00882764 -0.000976866 -0.00586068)
(-0.00520325 -0.000264809 -0.000519183)
(-0.0111868 -0.00045058 -0.00067115)
(-0.00914497 -0.000348025 -0.00119726)
(-0.00544543 -0.000963387 0.000418353)
(-0.0130234 0.00195291 -0.000188512)
(-0.0129972 0.00194056 -0.000185552)
(-0.00472734 0.000604157 -0.000367317)
(-0.0034854 0.000498341 4.22339e-05)
(-0.00332471 0.000463616 -2.79897e-05)
(-0.00353983 0.000599893 -0.000123284)
(-0.00974872 0.00316216 -0.00223293)
(-0.00724769 -0.00618205 0.00247676)
(-0.00546181 -0.000949927 0.000720501)
(-0.00173204 5.59325e-05 0.000880877)
(-0.00160936 0.000149436 0.00105124)
(-0.00393858 0.00025796 0.00181361)
(-0.00197216 0.000171106 0.00104474)
(-0.00482709 -0.000311044 0.00164144)
(-0.00355822 0.000112278 0.000606102)
(-0.00240375 0.000103493 0.000530542)
(-0.00323286 0.000124234 0.000649087)
(-0.0010157 -0.00055484 -0.00133027)
(-0.00170591 9.16829e-05 -0.0004872)
(-0.00109379 2.93161e-05 0.000525949)
(-0.000445914 -0.000112153 -0.00114558)
(-0.000476865 0.000378428 -0.0011001)
(-0.00104619 5.09437e-06 -0.000954011)
(-0.00253951 -0.000145951 -0.00311049)
(-0.000885747 0.000108898 -0.00109251)
(-0.000720462 0.000213656 -0.000851304)
(8.81307e-05 0.000243645 -0.000915575)
(-0.0012296 0.00010986 -0.000287132)
(0.000479437 -0.000565346 -0.000366903)
(-0.000928608 0.000443049 -0.00137503)
(-0.0016762 0.000122767 -0.000610893)
(-0.00189004 0.000228688 -0.00107997)
(-0.0012131 0.00100084 -0.000653272)
(0.000287575 -0.000439654 0.00036894)
(-0.00111188 1.27433e-05 0.000398708)
(-0.00139583 -9.30891e-05 -8.264e-05)
(-0.000417361 0.00135092 -0.000715604)
(-0.000792858 0.000895354 -0.00100429)
(0.000530926 -0.000872563 0.000481916)
(0.000285214 0.000694039 -0.000364157)
(-3.15518e-05 0.000794101 -0.000621055)
(-0.00204808 0.00030127 -0.000193002)
(0.000335751 0.000584341 -0.000592761)
(-0.00199482 0.000807538 -0.000802272)
(0.00110885 -0.00022381 0.00024039)
(-0.00115992 -0.0016633 0.000285053)
(-0.00488833 0.000880394 -0.00101629)
(-0.00401463 0.000171931 -0.000798619)
(-0.00580265 0.000839916 -0.00123632)
(-0.00476116 0.000290788 -0.00105979)
(-0.00363884 0.000663107 -0.000713893)
(-0.00304632 0.000365709 -1.38058e-05)
(-0.00530986 0.000566464 -0.000472739)
(-0.00547813 0.000637619 -0.000410875)
(-0.00514152 0.000956781 -0.00106439)
(-0.00449445 0.00122936 -0.000277587)
(-0.00399089 0.000502925 -0.000349691)
(-0.00411322 0.000262508 4.0057e-05)
(-0.00338295 0.00111309 0.00121932)
(-0.00244362 0.000738871 -5.30514e-05)
(-0.00364784 0.00107868 -3.18228e-05)
(-0.0015772 0.000350611 8.90513e-06)
(-0.000990673 0.000126789 0.000827652)
(-0.0101706 0.00314516 -0.00758152)
(-0.000317507 -0.000832378 -0.00013241)
(0.000190774 0.000999272 0.00188219)
(-0.000835759 0.0001321 0.000619454)
(0.000237377 0.000281273 0.000626187)
(-0.0109762 0.00305835 -0.00744323)
(-0.000728938 -0.00088258 -0.000307879)
(0.00042213 -0.000141061 0.000799371)
(0.000280012 -0.000579052 -0.000614637)
(-0.000886245 -4.36281e-05 -0.000287173)
(-0.000701218 -0.000441209 -0.000362015)
(-0.000560449 -0.000899404 0.000149428)
(-0.0062243 -0.00337446 -0.00386494)
(-0.01487 -0.00448018 0.00312366)
(-0.00360118 -0.00425918 8.58196e-05)
(-0.00401095 -0.00338127 3.04017e-05)
(-0.00314745 -0.00265742 0.000108406)
(-0.014157 -0.00900236 0.00507224)
(-0.00392644 -0.0032946 0.000188981)
(-0.0132595 -0.00814096 0.00455193)
(-0.0102839 -0.00801811 -0.00188235)
(-0.00503964 0.000787009 -0.000282685)
(-0.00283931 0.000325703 -0.000127384)
(-0.00519168 -0.000338444 -7.73423e-05)
(-0.0190156 -0.00440605 -0.000224926)
(-0.00941732 -0.00241621 0.000570727)
(-0.0170561 -0.0037987 -0.000924604)
(-0.00800946 -0.00106745 0.00021348)
(-0.00251919 0.00019915 -5.6058e-05)
(-0.0192334 -0.00456448 -0.000443946)
(-0.00618819 -0.00134695 0.000257794)
(-0.00252215 0.000499142 -0.000277654)
(-0.00478552 0.00143874 -0.000863327)
(-0.00386229 0.000580844 -0.000263641)
(-0.00453452 0.00146104 -0.000809453)
(-0.00223686 0.000381254 -0.000399246)
(-0.00455781 0.000226396 -0.000308935)
(-0.00427745 0.00127359 -0.000647497)
(-0.00839288 -0.00231375 -0.00656339)
(-0.00859834 -0.00880836 0.00280079)
(-0.00665995 -0.00231942 -0.00237949)
(-0.000810157 -0.00097482 0.000189032)
(-0.00081002 -0.000975004 0.00018898)
(-0.00666151 -0.00655452 0.00210761)
(-0.00107979 0.00040577 -0.000173122)
(-0.000639319 -0.00106782 4.45754e-05)
(-0.00282368 -0.00320726 0.000216441)
(-0.000760181 -0.00113404 -0.00021944)
(-0.000636703 -0.000856556 0.000200597)
(-0.000636253 -0.000856781 0.000200424)
(-0.00694427 -0.00602009 0.00223205)
(-0.0165846 -0.00257443 0.000831671)
(-0.0167854 -0.00344373 -0.000343973)
(-0.00673421 0.000130779 -0.000153897)
(-0.00429403 -0.0002898 -7.9516e-05)
(-0.01136 -0.00205882 -1.39441e-06)
(-0.0174341 -0.00324079 0.000646661)
(-0.00823279 -0.000546222 -0.00038946)
(-0.0133581 -0.00252504 -0.000245385)
(-0.00684411 -0.00106217 -7.69208e-05)
(-0.00378664 -0.00293134 -8.16542e-05)
(-0.00360524 -0.00310028 -0.000288659)
(-0.00937238 -0.00556419 -0.00278954)
(-0.0167928 -0.00336304 0.00179591)
(-0.0175237 -0.00379482 0.00162547)
(-0.00427402 -0.00350949 -0.000376926)
(-0.0149377 -0.00293714 0.00168378)
(-0.00387016 -0.00317135 -0.000622265)
(-0.016558 -0.0030818 0.00172723)
(-0.0084723 0.000257321 -0.000653846)
(-0.00735223 0.00148435 -0.00120563)
(-0.00787912 0.00175999 -0.00135958)
(-0.00126369 -0.00125559 0.0001303)
(-0.00126379 -0.00125532 0.000130338)
(-0.00883834 0.000107091 -0.000649603)
(-0.00804584 0.00190748 -0.0013395)
(-0.00695921 -0.000151041 -0.00067284)
(-0.0095227 -0.00228537 -0.000278704)
(-0.00754857 -0.000396551 -0.000618289)
(-0.0132445 -0.00235435 0.000523739)
(-0.0112812 -0.00297825 -9.81607e-05)
(-0.0112705 -0.00297586 -9.44357e-05)
(-0.00879206 -0.00090254 -0.000375534)
(-0.0126024 -0.00303098 -0.000663449)
(-0.0154018 -0.00449858 0.00403168)
(-0.00914655 -0.00327362 0.00236196)
(-0.00972087 -0.000429493 -0.000456412)
(-0.0111505 -6.61669e-05 0.000167667)
(-0.0105349 -0.000476828 -2.63618e-05)
(-0.0114976 -4.19653e-05 -2.34785e-05)
(-0.00999613 3.05357e-05 -9.72486e-05)
(-0.0111446 0.000160556 7.17752e-05)
(-0.00396639 -0.00115337 -0.000168867)
(-0.00799901 -0.00033589 3.07135e-05)
(-0.00410792 -0.00380321 -0.000118538)
(-0.021338 -0.00332129 0.00370554)
(-0.0046928 -0.00457731 -0.000251384)
(-0.0130272 0.000732716 0.000458965)
(-0.0220765 -0.00378377 0.00425056)
(-0.0164242 0.00023821 -0.00112561)
(-0.00935342 -0.00195903 0.000238062)
(-0.00967718 -0.00189281 0.000851447)
(-0.019623 -0.00273362 0.00282417)
(-0.022165 -0.000217567 3.21761e-05)
(-0.0120997 -0.000668415 0.000445144)
(-0.00773161 -0.00193308 0.00337141)
(-0.0115044 -0.000658699 0.000291208)
(-0.0205148 -0.00358597 0.00383663)
(-0.00803172 -0.00252102 0.00397411)
(-0.0116166 -0.000849761 0.000484826)
(-0.0119459 -0.000545327 0.000293676)
(-0.0181181 0.00125829 -0.00186543)
(-0.0106469 -0.0030299 -8.77165e-05)
(-0.000796611 -0.000627176 -0.000136143)
(-0.0139101 -0.0011968 -0.000159892)
(-0.00105506 0.00039808 0.000181078)
(-0.0170919 0.000444257 -0.00151206)
(-0.00065749 -0.000970051 -0.000294372)
(-0.0159217 -0.000129882 -0.000226959)
(-0.0012684 0.000215985 -0.000160307)
(0.000147176 3.02472e-05 -0.000121156)
(-0.000118858 0.000111479 -3.27299e-05)
(-0.00124906 -1.73944e-05 0.000229666)
(-0.00128805 0.000200417 -0.000128466)
(0.000226529 0.000294327 0.000303811)
(-0.00131688 -0.000203272 0.000197789)
(-0.000228774 0.000237748 0.000114673)
(-0.00188506 7.82049e-05 0.000434221)
(-0.00166932 0.000723234 0.00348231)
(-0.00189154 -0.000245766 7.4421e-05)
(0.000408609 0.000258987 0.000298728)
(-0.00129787 -0.000264237 0.000101584)
(-0.0015515 0.000179885 3.24359e-05)
(-0.00188557 0.000132359 0.000952741)
(-0.00188435 9.12971e-05 0.000525353)
(-0.00151746 0.000566193 0.00292029)
(-0.00161641 0.000687475 0.00362267)
(-0.00190474 0.000629613 0.00318558)
(-0.00112537 -0.000432777 -0.00023715)
(-0.00179299 0.000836345 -0.000449282)
(0.000400235 -0.000328085 -2.23113e-05)
(-0.00231229 0.000170207 -0.00015323)
(-0.00138779 -0.000172616 -0.000196589)
(0.000220662 -0.000314336 0.000285554)
(-0.000256693 -0.000264247 9.6516e-05)
(-0.00152031 0.00029221 6.183e-05)
(0.00039728 -0.000821462 0.000315691)
(0.000698029 -0.000632828 0.000137014)
(5.10399e-06 0.00088701 -0.000354973)
(-0.000757975 0.00127193 -0.000387229)
(-0.0010939 -0.00161455 0.000170553)
(-0.00240246 -0.000855934 0.000206731)
(0.000499572 -0.000868393 2.48418e-05)
(-0.000738191 -0.0018886 0.000498443)
(-0.000952107 -0.00178289 0.000320781)
(-0.000134757 0.000961013 0.00034026)
(-0.000436418 -0.00138093 0.000143703)
(-0.00140093 0.000476928 0.00193209)
(0.000364942 -0.000318505 0.000267606)
(-0.00165627 -3.26867e-05 0.000173824)
(-0.00161066 0.00011093 -9.18677e-05)
(-0.000383652 0.000552524 0.00158393)
(-0.00178612 7.86953e-06 0.000731466)
(0.000504163 -0.000718081 -8.24592e-05)
(-0.00315259 0.000300479 0.00205212)
(-0.00118462 0.000813727 0.00164171)
(-0.000120495 0.00115221 0.000636377)
(-0.00105266 -0.00138651 8.21218e-05)
(-0.000647781 0.000342581 0.000966768)
(0.000570914 0.000164517 -0.000613756)
(-0.00357624 4.83121e-06 0.000439491)
(-0.0108835 0.0015736 0.00517212)
(-0.00254533 0.000191602 0.000795848)
(-0.00254678 -9.24491e-06 0.000644018)
(-0.00467717 0.000177679 0.00132903)
(0.000654624 0.000303804 0.00102446)
(0.000495119 -0.000570416 0.000516158)
(-0.00175389 0.00182383 -0.000181192)
(-0.00188564 0.00192585 -0.000189665)
(-0.00178435 0.00179611 -0.000177672)
(-0.00183556 0.00187618 -0.000185283)
(-0.00188753 0.00192958 -0.000190023)
(-0.00522775 0.00582586 0.000624718)
(-0.00252123 0.000129294 0.0012853)
(-0.00804152 0.00263684 0.00472309)
(-0.00779492 0.00223155 0.00466988)
(-0.0042778 0.000522681 0.00186661)
(-0.00400239 0.000762361 0.00214564)
(-0.00428706 0.000888248 0.00241696)
(-0.0039722 0.000592134 0.00188015)
(-0.00404336 0.00072161 0.00209399)
(-0.0209905 0.00341732 0.00300332)
(-0.00868542 0.000697389 0.00166101)
(-0.00868024 0.000698741 0.00166172)
(-0.008685 0.000699681 0.00166329)
(-0.0182481 0.00627719 -0.00385772)
(-0.0123475 0.00413365 -0.00250493)
(-0.00601879 -0.0039898 0.00236166)
(-0.0148178 -0.0023166 0.000401292)
(-0.00774562 -0.0159636 -0.0046869)
(-0.0151158 -0.00176736 0.000204866)
(-0.00385086 -0.00470811 0.00185966)
(-0.0154919 -0.00240687 0.00115217)
(-0.00344332 -0.00377915 0.00187015)
(-0.0164117 -0.00161604 0.000949154)
(-0.00166048 0.000548888 0.00267651)
(-0.00155031 0.000273442 0.00109785)
(-0.00415921 0.000486329 0.00279107)
(-0.00197756 0.000161657 0.00164273)
(-0.00150105 0.000467114 0.00262945)
(-0.00193499 0.000555015 0.0030278)
(-0.00227326 0.000227056 0.0018491)
(-0.00222 3.82083e-05 0.000878849)
(-0.00522104 0.000381984 0.00147491)
(-0.00169944 6.08998e-05 0.000862357)
(-0.00266808 5.99844e-05 0.000515876)
(-0.00204381 0.000110385 0.000672313)
(-0.00304078 0.000264761 -0.00169816)
(-0.00205776 0.000101169 -0.00124416)
(-0.00398038 0.000260209 -0.00231647)
(-0.00383757 0.000583084 -0.000271408)
(-0.00385453 0.000514913 -0.000233689)
(-0.0102118 0.000555125 -0.00488711)
(-0.00235315 6.77348e-05 -0.000882119)
(-0.00408906 9.16396e-05 -0.00157707)
(-0.00220445 0.000160241 -0.000224475)
(-0.00207572 -0.00155831 -0.00177244)
(-0.00185789 -0.00187673 -0.000322361)
(-0.00246982 0.000717419 -0.00275291)
(-0.00776732 -0.00663711 -0.00104013)
(-0.00537219 -0.00438862 -0.000867833)
(-0.00938779 -0.0069104 -0.00271538)
(-0.00493243 -0.00406592 -0.000631019)
(-0.00766277 -0.00563406 -0.00199959)
(-0.0078696 -0.00097612 0.000811284)
(-0.0129442 -0.0110365 0.0054972)
(-0.012515 -0.000408681 0.000918062)
(-0.00169817 -0.00111634 0.00116021)
(-0.00667945 -0.000996717 -0.00941956)
(-0.00258587 -0.00147595 -0.00298131)
(-0.00251758 0.000829757 -0.00446334)
(-0.00413303 0.000780319 0.000820895)
(-0.00433654 0.000724247 0.000751385)
(-0.00263444 0.000267788 0.000748703)
(-0.0171217 -0.002259 -0.000313189)
(-0.00141052 -0.000163514 -0.000644931)
(-0.00139933 -0.000134872 -0.000579939)
(-0.00425669 0.000347534 -0.000741929)
(-0.00362008 0.00029189 -0.000680634)
(-0.00162433 0.000358567 -0.00287466)
(-0.00803959 -0.0016176 0.000442589)
(-0.00380253 0.000914845 -0.00037173)
(-0.00248877 0.000530529 -0.000483928)
(-0.00304221 0.000454678 -0.000267692)
(-0.0106516 -0.00153723 -0.000251084)
(-0.00876144 -0.000844268 -0.000342911)
(-0.0145663 -0.00228859 -0.00383474)
(-0.01867 -0.00322243 0.000821261)
(-0.000919843 -0.000693252 -6.24923e-05)
(-0.0156154 0.010191 0.000305388)
(-0.00380664 0.000628459 -0.000371868)
(-0.00466975 0.000753352 -0.000580615)
(-0.00502755 0.00128137 -0.000999167)
(-0.0179953 -0.00203122 -0.00392292)
(-0.0138709 -0.00315856 -0.00408209)
(-0.0045289 -0.000995492 0.000148675)
(-0.00542436 -0.00142536 0.000415358)
(-0.00442137 -0.00111667 0.000690918)
(-0.00638556 -0.000646227 9.70745e-05)
(-0.00567321 -0.000171671 0.00230885)
(-0.0136402 -0.00329991 0.00159007)
(-0.00868148 -0.00333361 0.00194018)
(-0.0151353 0.00120917 -0.0029769)
(-0.00322369 -0.000192647 0.00168905)
(-0.000692519 7.41081e-05 -0.00193866)
(-0.00958695 0.00298323 -4.61187e-05)
(-0.00508878 0.00127041 -0.000541717)
(-0.00304995 0.000347292 -0.000304351)
(-0.000613173 -0.000956948 0.000906554)
(-0.00239541 -0.00124016 0.00175716)
(-0.00161297 -0.000804217 0.00244809)
(-0.00142026 -0.00167977 0.00071413)
(-0.00211633 0.000432313 -0.000580998)
(-0.00408108 0.00100259 -0.000965054)
(-0.00809669 0.00188474 0.000442456)
(-0.00461908 -5.45926e-05 0.000549289)
(-0.00398444 0.000901379 -0.00024886)
(-0.00290129 0.000685638 -0.000371337)
(-0.00314975 0.000826528 -0.000583068)
(-0.00244105 0.000300939 5.73149e-06)
(-0.00145158 -5.2387e-05 -0.00306035)
(-0.00405743 -0.00539882 -0.00119)
(-0.000579852 -0.00109729 -0.00063192)
(-0.000579983 -0.00109719 -0.000631944)
(-0.00635792 -0.00482701 -0.00467663)
(-0.00436595 -0.00639053 0.00104508)
(-0.0029405 -0.00339541 0.000743023)
(-0.000536487 -0.000613875 -0.000201665)
(-0.000527396 -0.00067614 0.000514873)
(-0.00249865 -0.00338841 -0.000634664)
(-0.00243113 0.000412048 -0.000139262)
(-0.00347727 9.13235e-05 -7.23153e-05)
(-0.00658305 -0.000940978 -7.42359e-05)
(-0.0151451 -0.00616021 0.0049641)
(-0.0139044 -0.00302986 -0.000102264)
(-0.0100266 -0.00805727 0.000818938)
(-0.00855429 -0.00669068 0.000370828)
(-0.00390175 0.000610107 -0.00035816)
(-0.00328513 0.00050878 -0.000329565)
(-0.00344716 0.000590898 -0.000232066)
(-0.0223749 -0.00548347 0.00336066)
(-0.0140544 -0.00311078 0.00181463)
(-0.00952446 -0.00127174 0.000147455)
(-0.00660343 -0.00124997 7.82648e-05)
(-0.0131455 -0.00293908 -0.000184641)
(-0.00911971 -0.00204201 6.2178e-05)
(-0.00651817 0.00141698 -0.00164512)
(-0.00503921 0.000903996 -0.000809694)
(-0.00449105 0.00108468 -0.000381198)
(-0.00402327 0.00119554 -0.000926715)
(-0.00440092 -0.00058224 -0.000130049)
(-0.00714377 -0.00110171 -0.000238861)
(-0.00336199 -0.000104029 -0.000386601)
(-0.00117191 -0.00113643 -0.000177876)
(-0.00117226 -0.00113609 -0.000178024)
(-0.00575349 -0.0055113 0.00103739)
(-0.00556055 -0.00520103 -0.000445034)
(-0.00701786 -0.00183006 -0.00315709)
(-0.00499633 0.000743358 -0.00234031)
(-0.00449783 0.000271185 -0.00230507)
(-0.00589358 0.000945301 -0.000137233)
(-0.00539152 0.000347641 5.73252e-05)
(-0.0164492 -0.00468693 0.000149298)
(-0.0104182 -0.00191652 -0.000464916)
(-0.0135832 -0.00320157 -0.000976978)
(-0.012442 -0.00285451 -0.000121446)
(-0.0122337 -0.00225323 -0.000224097)
(-0.0125364 -0.00283684 -0.000132077)
(-0.00684096 -0.00505224 0.00018618)
(-0.00843698 -0.0065182 0.000357654)
(-0.0164873 -0.00948366 -0.00581467)
(-0.0111157 -0.00306223 0.00250723)
(-0.0165818 -0.00341486 0.00149917)
(-0.00752953 0.00115434 -0.000485)
(-0.00996981 -0.00654945 0.00165566)
(-0.0159667 -0.00351064 0.000678374)
(-0.0164042 -0.0027528 0.00118572)
(-0.00720886 0.000771141 -0.00114005)
(-0.0097608 -0.00876867 -0.00331689)
(-0.006257 0.000489556 -0.00225271)
(-0.00541398 0.00104324 -0.000599147)
(-0.00741847 0.00179821 -0.00165259)
(-0.0115319 -0.000598372 -0.000729354)
(-0.00649125 -0.00384857 0.00205497)
(-0.00578728 -0.00562181 0.0015334)
(-0.00609199 0.000531485 -0.000980673)
(-0.0105345 -0.00170494 -0.00089392)
(-0.0128278 -0.0033513 0.000153273)
(-0.0133103 -0.00281017 -0.000191297)
(-0.00899759 -0.00214206 -0.00525367)
(-0.00754774 -0.00227835 -0.00247735)
(-0.0112666 -0.00208488 -0.000169219)
(-0.0109924 -0.00220578 -0.000327942)
(-0.00643842 -0.00640148 0.00149762)
(-0.00960647 -0.00011006 0.000644588)
(-0.00966803 -0.000431173 0.000621065)
(-0.0106809 -0.000223311 0.000508791)
(-0.0121242 -1.82726e-05 -0.000294411)
(-0.00800488 -0.0003202 0.000439223)
(-0.00479906 -0.000998493 0.000245974)
(-0.0066782 -0.000735189 0.00023689)
(-0.0192852 -0.00209197 0.00171268)
(-0.0193108 -0.00119753 0.00148859)
(-0.0185264 -0.00164828 0.00220191)
(-0.0119142 0.000430335 -0.000261656)
(-0.0108493 0.00378578 -0.000441416)
(-0.0190741 -0.00218872 0.001316)
(-0.0168752 0.000569858 3.65157e-05)
(-0.0186286 -0.00095444 0.00132735)
(-0.0140756 -0.000335281 3.63544e-05)
(-0.0149972 -0.000403182 0.000671099)
(-0.00716931 -0.00123159 0.00176554)
(-0.00989065 -0.000537016 0.000655291)
(-0.0096644 -0.00100957 0.000497114)
(-0.0069934 -0.00175181 -0.0122358)
(-0.0167095 -0.00486927 0.00463951)
(-0.0145097 0.000310495 9.90595e-06)
(-0.0159852 -0.000377344 0.000159162)
(-0.00468652 -0.00151866 -0.00126325)
(-0.00102187 -4.53181e-05 -0.00100748)
(-0.00556929 -0.00121006 -0.000898759)
(-0.00405907 0.000404154 0.0025112)
(-0.00368463 0.000232478 0.0035846)
(-0.00202212 0.000285127 0.00175902)
(-0.00310156 0.000763525 -0.000855964)
(-0.00273996 1.72468e-06 0.000551866)
(-0.00511837 0.00018295 0.00091094)
(-0.00388212 0.000167193 0.000571564)
(-0.00425937 0.000378348 0.000812387)
(-0.00507826 0.000307782 0.00150295)
(-0.00334275 0.000178177 0.000580064)
(-0.00316019 0.000159028 0.000593153)
(0.0002635 -0.000235049 0.000220803)
(-0.000992472 0.00108558 0.000339724)
(-0.000992067 0.00108609 0.000339574)
(-0.000989828 0.00108157 0.000338894)
(-0.000680008 0.000955569 0.00031362)
(-0.00243316 0.00263714 0.000231843)
(-0.00270284 0.00317086 0.000780149)
(-0.00546889 0.00388393 -0.000229947)
(-0.00351106 -0.00358011 0.00160936)
(-0.00430999 0.00796047 0.00210108)
(-0.00225024 0.000216793 0.00122545)
(-0.00388958 0.000329684 0.00196534)
(-0.00467944 0.000566482 0.00185429)
(-0.00235394 0.00219973 0.000987359)
(-0.00250099 0.000371598 0.00198659)
(-0.00260023 0.000394081 0.00209371)
(-0.00257221 0.000374509 0.00202444)
(-0.00256849 0.000374694 0.0020238)
(-0.0032599 0.00538366 0.0012043)
(-0.00705214 0.0071957 -1.92081e-05)
(-0.00536008 0.000531429 0.00190218)
(-0.00245153 0.000183172 0.00108905)
(-0.00314037 0.000453401 0.00144032)
(-0.0098652 0.00430814 -0.000656776)
(-0.00987059 0.00429321 -0.000651233)
(-0.00983817 0.00428226 -0.000650463)
(-0.00969172 0.00422352 -0.000642802)
(-0.0028839 8.14551e-05 0.000550418)
(-0.00311576 3.93394e-05 0.000601396)
(-0.0172967 0.00644548 0.00140041)
(-0.0158879 -0.00338693 -0.00377299)
(-0.0218915 -0.0056042 0.000268219)
(-0.0128607 -0.00316862 -0.00386676)
(-0.0192227 -0.0036661 -0.00215914)
(-0.0164274 -0.00177086 0.000139882)
(-0.00881707 7.87191e-05 -0.00208278)
(-0.00731791 -0.000873853 -0.000857769)
(-0.00620047 -0.00117551 -0.00129355)
(-0.00701745 0.000271651 -0.00272869)
(-0.00509597 -0.00179497 0.000377806)
(-0.0126626 -0.00227807 0.00139117)
(-0.0190613 0.00101965 -0.00688512)
(-0.0158697 -0.00112398 0.000898416)
(-0.0129719 -0.000773328 -0.000823225)
(-0.0174171 -0.00144552 0.00164606)
(-0.00434832 0.000684984 0.00353539)
(-0.0030457 0.000333901 0.00207092)
(-0.00265944 0.000237236 0.00123691)
(-0.00383556 9.93742e-05 0.00187267)
(-0.00187636 0.000269143 0.000897277)
(-0.00239414 0.000224123 0.00068954)
(-0.00443542 0.000269372 0.00148879)
(-0.00479322 0.000380085 0.00155089)
(-0.00580774 0.000317673 0.00105133)
(-0.00246152 4.00957e-05 0.000745964)
(-0.00266553 0.000367145 -0.00154807)
(-0.00306117 0.000505763 -0.00169565)
(-0.00457672 0.000805876 -0.0026756)
(-0.00387604 0.00066921 -0.00218624)
(-0.00424668 0.000603761 -0.00248887)
(-0.00366221 0.000840033 -0.00199257)
(-0.00462539 0.000811057 -0.00268087)
(-0.00363895 0.000715101 -0.0020028)
(-0.0101077 -0.00064347 -0.000279532)
(-0.00332954 0.000519606 4.47006e-05)
(-0.00487046 0.000585142 -0.000198607)
(-0.00332491 0.00050692 -8.81981e-05)
(-0.0049529 0.000719551 -0.000303184)
(-0.00396503 0.000556337 -0.000221245)
(-0.00657896 0.000910159 -0.00013576)
(-0.00472606 0.000750232 -0.000264833)
(-0.0114256 0.00196017 -0.00149294)
(-0.0125632 0.00140263 -0.000928115)
(-0.0125509 0.00133472 -0.000316622)
(-0.00971366 0.000370244 -0.00248405)
(-0.0118445 0.000436945 -0.00296785)
(-0.00370323 -0.000636652 -0.000653967)
(-0.0101299 -0.00293627 0.000817466)
(-0.0048603 -0.00124746 0.00193451)
(-0.00622611 -0.00168354 0.00135227)
(-0.00738775 -0.00190418 0.000414072)
(-0.0058959 -0.00183892 0.000974766)
(-0.00908476 -0.00312968 0.00262795)
(-0.00620999 -0.00883848 -0.00292793)
(-0.00168032 0.000406358 0.000624436)
(-0.000982325 0.000530494 0.000770949)
(-0.000586793 0.000473625 0.000615556)
(-0.000629926 2.04044e-05 0.000255262)
(-0.00070064 0.000123485 0.000184957)
(-0.000587194 0.00016248 0.000234359)
(-0.00130825 0.000284599 0.000737176)
(-0.00029671 -8.60272e-06 0.000420659)
(-0.000234981 0.000300284 0.000425683)
(-0.000526965 0.000397923 0.000570386)
(-0.00057873 0.000174931 0.000223296)
(-0.000472933 0.000251373 0.000419575)
(-0.00243514 0.00013277 -0.00108555)
(-0.00276891 0.000339045 -0.00114205)
(-0.00193759 -0.000412172 0.000313267)
(-0.000930824 -0.000595157 0.000852789)
(-0.000744452 -0.000374523 0.000666197)
(-0.000725559 -1.69309e-05 0.000286313)
(-0.000716854 8.96972e-05 0.000195284)
(-0.000711376 -2.02159e-05 0.000337856)
(-0.00146435 -0.000303998 0.000599025)
(-0.000441828 -7.5404e-05 0.000392557)
(-0.000498724 -0.000258786 0.000437146)
(4.13662e-05 -0.000428328 0.000666952)
(-0.000198696 0.000123503 0.000217362)
(-0.0002518 -1.11676e-05 0.000533212)
(-0.00265361 0.000397906 -0.00123211)
(-0.00383642 0.000256366 -0.00178823)
(-0.00397633 0.000563567 -0.00193316)
(-0.0030763 0.000112613 -0.000856767)
(-0.00680454 0.000684432 -0.00038836)
(-0.00501963 0.000628233 -0.000451019)
(-0.00450833 0.000512082 -0.000315687)
(-0.00341883 0.000422557 -1.55086e-05)
(0.0017687 -6.92937e-05 -1.91846e-05)
(-0.00185486 -0.000213363 0.000508451)
(-0.00109982 -0.0018118 0.000452299)
(-0.00169935 -0.00187343 0.000109623)
(-0.00034542 -0.000675649 0.000702271)
(-0.00170718 0.00137061 -0.000520028)
(-0.00123625 0.00140635 -0.00295747)
(0.00123417 0.00120431 -0.000653686)
(0.00159461 -8.16679e-05 2.04164e-05)
(0.00122024 0.0011012 -0.000565878)
(-0.00168637 0.00096437 5.7014e-05)
(-0.000471651 0.00115869 -0.000950392)
(-0.000289756 -4.98783e-05 0.000316315)
(0.000308856 0.00127523 -0.000519056)