/*--------------------------------*- C++ -*----------------------------------*\
  =========                 |
  \\      /  F ield         | OpenFOAM: The Open Source CFD Toolbox
   \\    /   O peration     | Website:  https://openfoam.org
    \\  /    A nd           | Version:  10
     \\/     M anipulation  |
\*---------------------------------------------------------------------------*/
FoamFile
{
    format      ascii;
    class       volScalarField;
    location    "0.1";
    object      k;
}
// * * * * * * * * * * * * * * * * * * * * * * * * * * * * * * * * * * * * * //

dimensions      [0 2 -2 0 0 0 0];

internalField   nonuniform List<scalar> 
114940
(
0.0992169
0.0954143
0.0990864
0.0955974
0.096756
0.0953177
0.0956299
0.0953154
0.095279
0.0954779
0.095137
0.0949542
0.0949981
0.0955115
0.0958172
0.0953021
0.0948812
0.0948446
0.0949422
0.094945
0.0955397
0.0952641
0.095423
0.0948664
0.0949496
0.0949491
0.095459
0.0954287
0.0952789
0.0950133
0.0951369
0.0950907
0.0955417
0.0955049
0.0948352
0.097366
0.0982827
0.0976349
0.0957588
0.0948911
0.0969215
0.0964791
0.101026
0.0966178
0.0955197
0.0973738
0.0953387
0.0996916
0.102448
0.0974526
0.096798
0.0951113
0.0949841
0.0966809
0.101253
0.101978
0.100182
0.0988942
0.0967919
0.0949044
0.095208
0.0964688
0.0992661
0.10236
0.100274
0.0984331
0.0960787
0.0953644
0.0950533
0.103054
0.102554
0.0970245
0.101574
0.0985527
0.0966271
0.0999117
0.100848
0.0969308
0.0959875
0.0951935
0.0954958
0.0952617
0.0960598
0.0957186
0.0959837
0.0951216
0.0951834
0.0952245
0.0953337
0.0952
0.0955184
0.0953862
0.0955467
0.0956671
0.0954447
0.0962644
0.0953656
0.0949253
0.0970875
0.0979468
0.0991658
0.0967454
0.0956588
0.0982008
0.0984917
0.0967009
0.10041
0.102041
0.0975476
0.0985551
0.0983652
0.0972447
0.103689
0.103313
0.101886
0.0968312
0.0967002
0.0961687
0.0992146
0.10011
0.102557
0.101597
0.0997081
0.0984682
0.0966988
0.0953019
0.0952223
0.0958621
0.103195
0.105834
0.0984387
0.0982969
0.0988111
0.0994848
0.0968712
0.0955562
0.0954784
0.096669
0.101517
0.101421
0.0985769
0.0986263
0.0992128
0.0998352
0.0984323
0.098815
0.0975002
0.100246
0.101816
0.1003
0.0988024
0.0960393
0.0959486
0.0980642
0.0958672
0.0976457
0.1009
0.0962665
0.100472
0.0994398
0.0974725
0.0962567
0.100247
0.102809
0.0971233
0.10119
0.0986718
0.100065
0.101102
0.0973232
0.0953988
0.0953963
0.0964303
0.0957221
0.0952729
0.0891798
0.0974082
0.100267
0.101404
0.0970927
0.0437987
0.0858024
0.0973318
0.104117
0.103738
0.100922
0.0882889
0.0904226
0.0899539
0.0954159
0.101961
0.108932
0.102258
0.100717
0.0986579
0.0944562
0.0958487
0.0960818
0.101445
0.098853
0.101725
0.106304
0.0995158
0.0960299
0.100589
0.0962832
0.0970216
0.0963863
0.102342
0.10371
0.109909
0.101404
0.101269
0.100949
0.0994454
0.0962431
0.098218
0.0978769
0.0997677
0.102055
0.100799
0.101682
0.0980282
0.100977
0.099928
0.100535
0.0976765
0.0995878
0.106102
0.0997344
0.111846
0.0989654
0.0999118
0.0988432
0.101238
0.100135
0.10237
0.101043
0.110419
0.0997886
0.099018
0.0995065
0.103314
0.108022
0.0988743
0.111221
0.101457
0.0989954
0.0981354
0.0972744
0.0998411
0.104545
0.0952588
0.0949698
0.0949336
0.095365
0.0960145
0.0958381
0.0953221
0.0885934
0.0964446
0.1023
0.101392
0.0971023
0.085954
0.0982276
0.0988693
0.105474
0.100908
0.0814021
0.100151
0.100215
0.101769
0.10058
0.0963356
0.0962978
0.0472005
0.0922133
0.100752
0.0984346
0.107372
0.0990638
0.0966164
0.100172
0.0977353
0.0827467
0.0512108
0.0858892
0.101125
0.106184
0.10165
0.101435
0.100058
0.0989779
0.0974991
0.0464571
0.0400366
0.0819147
0.104615
0.0995541
0.101079
0.098026
0.0996465
0.0995316
0.100112
0.0821896
0.0591532
0.0909392
0.103022
0.113096
0.0983161
0.100448
0.100786
0.101325
0.0838219
0.0399184
0.11987
0.128223
0.0997865
0.103173
0.101978
0.0997677
0.101619
0.105251
0.131779
0.101395
0.102227
0.0987343
0.0958425
0.102809
0.104055
0.0952477
0.0949472
0.0949154
0.0953347
0.0957389
0.0951018
0.0948738
0.0752091
0.0980372
0.099208
0.0968298
0.0956711
0.0858039
0.0987798
0.100738
0.101885
0.0976498
0.0665095
0.0881466
0.0966701
0.1012
0.0984875
0.105097
0.101929
0.0960439
0.0999829
0.098382
0.0954597
0.0993372
0.102853
0.0993108
0.100542
0.101306
0.0985217
0.097252
0.097712
0.102033
0.0976883
0.0989368
0.103486
0.0986375
0.106074
0.100527
0.0976836
0.100918
0.104052
0.0988598
0.0991068
0.098161
0.101852
0.102139
0.100143
0.099323
0.099608
0.102074
0.0996237
0.102748
0.097208
0.0979262
0.103226
0.103461
0.103719
0.095918
0.0986865
0.103448
0.102143
0.0974417
0.103913
0.105797
0.127732
0.0959323
0.10007
0.103257
0.10037
0.101984
0.111231
0.104492
0.101608
0.102433
0.103722
0.101623
0.0954418
0.0953792
0.0953194
0.0967161
0.100024
0.0982315
0.107282
0.0964202
0.106454
0.0980995
0.105541
0.100446
0.108516
0.0983536
0.0960894
0.0966316
0.0989111
0.1023
0.0974841
0.095162
0.0959609
0.0957949
0.0967866
0.0964494
0.0953738
0.0968655
0.102283
0.102169
0.0960582
0.0957223
0.097109
0.0996975
0.0989493
0.0960771
0.0957859
0.0979666
0.0981564
0.101442
0.0986872
0.100152
0.101159
0.0972962
0.0962105
0.0955141
0.0969482
0.105857
0.100152
0.0960355
0.101661
0.1011
0.099179
0.0956374
0.0963202
0.109707
0.104476
0.0982662
0.0961884
0.0962082
0.100991
0.102245
0.0994919
0.0966779
0.104519
0.103915
0.101538
0.101888
0.104504
0.102821
0.0960962
0.0960148
0.0956788
0.10222
0.0991265
0.0966646
0.104957
0.0997364
0.0958548
0.0952653
0.0963502
0.099692
0.10092
0.0965333
0.0952376
0.0955982
0.0954125
0.0950475
0.0950971
0.095477
0.0950236
0.0949575
0.0950416
0.0955005
0.0957045
0.0950147
0.0950612
0.0950789
0.0948547
0.0950125
0.0949942
0.0956064
0.095804
0.095728
0.0954391
0.0948866
0.0949918
0.0950055
0.0954649
0.0960673
0.0966551
0.0951134
0.0953702
0.094993
0.0953807
0.0954868
0.0963963
0.0951336
0.0952204
0.0954277
0.0965592
0.0958209
0.095574
0.0948237
0.0950948
0.0948334
0.0952713
0.095283
0.0949135
0.0950173
0.0952793
0.0950749
0.0968993
0.0970964
0.0929041
0.0911217
0.0878513
0.100014
0.0961191
0.0990271
0.0538951
0.0926554
0.087754
0.0831907
0.1019
0.098836
0.0995954
0.089698
0.0895603
0.0942654
0.0934151
0.098174
0.099273
0.0980362
0.0967703
0.0925218
0.0989243
0.0951157
0.102905
0.0876062
0.0948348
0.0835287
0.0785619
0.101025
0.0869773
0.0949336
0.0885817
0.0951604
0.0873683
0.0948366
0.090335
0.0966727
0.0389683
0.0899909
0.0798072
0.0907498
0.0864863
0.0835587
0.0939625
0.0869006
0.0862598
0.0865209
0.096574
0.0778993
0.087579
0.0973137
0.0930608
0.0369366
0.100029
0.0881047
0.0850917
0.0965661
0.0858705
0.0911507
0.0371341
0.07958
0.0953224
0.0877371
0.0735131
0.0941906
0.0945856
0.0936203
0.0815916
0.0944097
0.0787169
0.087176
0.0991956
0.100545
0.0962428
0.0385301
0.0995783
0.0965301
0.0889755
0.0972685
0.0867777
0.0375478
0.0927562
0.0669309
0.0860824
0.0966293
0.0880269
0.0791575
0.0661904
0.0541591
0.0817072
0.0981158
0.087621
0.0538099
0.0859411
0.0352762
0.0946194
0.101789
0.0952095
0.0388596
0.0792972
0.0767326
0.0446978
0.107511
0.0604411
0.0887908
0.0949551
0.0786305
0.0950955
0.105626
0.0870672
0.0597912
0.0757221
0.0949305
0.0891174
0.0964702
0.077626
0.0951007
0.0836095
0.0951879
0.0406896
0.0734117
0.083916
0.0745555
0.0783809
0.0826793
0.0981045
0.0862759
0.044351
0.0773694
0.102938
0.0933519
0.0903174
0.0404553
0.0802777
0.0868357
0.0984297
0.0957621
0.0736605
0.0796932
0.0919501
0.0925306
0.098433
0.0870817
0.0782432
0.0746256
0.0502015
0.0971479
0.0924162
0.0963787
0.0806504
0.083703
0.0710323
0.0360202
0.0966114
0.093761
0.0971357
0.0838403
0.0695268
0.0785598
0.0567394
0.0966647
0.0937408
0.0989865
0.0950899
0.0596551
0.0911451
0.0954849
0.0601502
0.0737021
0.094991
0.101067
0.0948398
0.0555927
0.0789222
0.0967613
0.100425
0.0963214
0.0962575
0.0958684
0.0954687
0.0979456
0.0962998
0.0974018
0.0985815
0.0951386
0.095517
0.0949465
0.0990351
0.0944976
0.0985953
0.0956763
0.0950388
0.0954918
0.0949659
0.0985241
0.0955621
0.0983686
0.0958114
0.0594568
0.0680414
0.0680335
0.0776724
0.0904252
0.0791593
0.0885385
0.0832595
0.0734799
0.0835877
0.0898027
0.0871458
0.0518422
0.0669417
0.0825402
0.0969432
0.0536289
0.0853806
0.0624056
0.0574412
0.0953089
0.0975691
0.0894538
0.0933996
0.0961706
0.052586
0.0881677
0.0878627
0.0982224
0.100725
0.0973476
0.081329
0.0967376
0.0942922
0.0899614
0.0955558
0.0895868
0.0754115
0.0565083
0.0979751
0.0684066
0.0953076
0.0970744
0.0958889
0.0872627
0.0952158
0.0375829
0.0807727
0.0873391
0.100055
0.0921868
0.0348539
0.0958956
0.0760736
0.0952589
0.0971679
0.0957219
0.0843076
0.0941091
0.043591
0.0920435
0.0976002
0.0981963
0.0991773
0.0819905
0.0471413
0.0961817
0.0807082
0.0958969
0.0951306
0.0832054
0.0832051
0.0953318
0.096333
0.0893286
0.0977019
0.0759739
0.082783
0.0950693
0.0882672
0.0937103
0.0883642
0.0470335
0.0939325
0.0857671
0.0815139
0.0900099
0.0720919
0.0522252
0.0774917
0.0868662
0.0599533
0.0417244
0.0704503
0.0670184
0.0718731
0.0943076
0.0896552
0.10317
0.0911073
0.096828
0.0948027
0.0442631
0.0992046
0.0952096
0.0963653
0.0983381
0.102197
0.0973712
0.0939493
0.0770418
0.0977426
0.0896812
0.0974338
0.0936904
0.0752856
0.0598077
0.0564891
0.0713481
0.0450523
0.0670212
0.0764891
0.0953257
0.054713
0.086143
0.113299
0.0922979
0.0962729
0.0951584
0.0494669
0.0932098
0.0474927
0.09558
0.0884583
0.0963692
0.0856401
0.0778078
0.0746795
0.0439498
0.0802622
0.075153
0.086604
0.0947792
0.0380492
0.0795293
0.111767
0.0922942
0.0981205
0.093963
0.0383301
0.0962599
0.0779957
0.0967884
0.0829021
0.0970431
0.0977679
0.093636
0.0571412
0.0557845
0.063749
0.0516641
0.0880608
0.090176
0.0956436
0.0565982
0.0917724
0.106844
0.0923625
0.0993668
0.0949267
0.0574341
0.0959934
0.0784572
0.0977042
0.0957263
0.0993061
0.0970538
0.0748536
0.0961596
0.105436
0.0936101
0.0825819
0.0705735
0.0731295
0.0906093
0.0716192
0.0797827
0.0865161
0.0885654
0.102435
0.0963728
0.0973081
0.0975117
0.0851273
0.100313
0.0960436
0.101348
0.0971278
0.100015
0.100185
0.0945144
0.0987028
0.0938605
0.0952852
0.0950315
0.0954444
0.0950315
0.0966836
0.0980409
0.0942782
0.0953378
0.0951076
0.0957159
0.0950747
0.0984619
0.0844027
0.0681775
0.0826797
0.0710162
0.0850759
0.0630458
0.0712006
0.0859107
0.0861871
0.082297
0.0725309
0.0748234
0.0821702
0.076531
0.065502
0.0809172
0.0644494
0.0566159
0.0820501
0.0682778
0.0813056
0.0615435
0.0784717
0.0380238
0.0752317
0.0768618
0.0766101
0.0809213
0.0811643
0.0807961
0.0271589
0.0760964
0.0681198
0.0892429
0.0726735
0.0707491
0.0828964
0.0861061
0.073889
0.0487975
0.070326
0.0704391
0.0440815
0.0722456
0.045973
0.0725504
0.0890729
0.0808289
0.0877659
0.0864624
0.0868711
0.0871388
0.0476832
0.0788387
0.0362997
0.0379663
0.0447919
0.0325606
0.0425497
0.0769673
0.0367902
0.0427929
0.042767
0.0450879
0.0799661
0.0783
0.0786852
0.0567836
0.0924987
0.0877011
0.0911054
0.0816276
0.0786436
0.0591526
0.0735612
0.0873116
0.0733509
0.0808092
0.0858407
0.0797882
0.0836008
0.081573
0.0855248
0.0494113
0.0846147
0.0761227
0.0702964
0.071623
0.0919906
0.0780396
0.075519
0.0802961
0.0783749
0.0426382
0.0738725
0.0772305
0.0409367
0.0924575
0.0858426
0.0473831
0.0866938
0.056422
0.085158
0.0884553
0.049877
0.088908
0.0549565
0.0562884
0.0383559
0.042541
0.0721224
0.0446673
0.0522121
0.0449897
0.0514882
0.0467115
0.0606928
0.0462319
0.0482651
0.0806662
0.0529581
0.0559951
0.0561321
0.0553017
0.0544227
0.0812873
0.0867754
0.0487299
0.0794812
0.0804968
0.0808458
0.082288
0.0874718
0.0667321
0.0879326
0.0879835
0.0511996
0.0875681
0.0568867
0.0553912
0.0655831
0.0454723
0.0838932
0.0867219
0.0555057
0.0624733
0.0652123
0.0480123
0.0660157
0.066988
0.0799671
0.0500142
0.0780203
0.0574836
0.0657135
0.0969201
0.0863327
0.0713298
0.0863224
0.0525343
0.0616602
0.0665645
0.0843005
0.0864402
0.0796954
0.0864191
0.0755036
0.062088
0.0520721
0.0557848
0.0519337
0.0516296
0.0540144
0.0527703
0.0787858
0.0577569
0.0681793
0.0567579
0.0677854
0.0525552
0.0663587
0.0510661
0.05355
0.0532479
0.071042
0.062957
0.0625014
0.0556618
0.0506077
0.0970174
0.0866445
0.0624548
0.0853111
0.0688608
0.0550873
0.0493602
0.0873701
0.0859781
0.0643089
0.0855554
0.0639393
0.055333
0.0628864
0.0733614
0.0654748
0.0424804
0.0685781
0.0536165
0.063092
0.083878
0.069886
0.0511684
0.0737549
0.0514717
0.0620976
0.0521937
0.0413459
0.0530719
0.0622647
0.0532099
0.0514312
0.0528444
0.0842401
0.0500031
0.0683037
0.068324
0.075385
0.0759636
0.0517096
0.0828554
0.0926508
0.0684325
0.0591508
0.085815
0.0845148
0.0504842
0.0850573
0.0860158
0.0524571
0.057008
0.0860508
0.0870104
0.0495646
0.0741074
0.0789339
0.0655761
0.0665365
0.0645965
0.0760711
0.0666345
0.0641215
0.0986974
0.0815029
0.0953183
0.08262
0.0971014
0.094701
0.0973994
0.0835339
0.0964726
0.0970146
0.082327
0.0824794
0.0951453
0.0965264
0.0971743
0.0953011
0.0774106
0.0786612
0.0582372
0.0804195
0.0753946
0.0607782
0.0767709
0.0626584
0.056907
0.0424517
0.0753538
0.0632614
0.0482396
0.0607121
0.0396461
0.0518976
0.0544979
0.0412155
0.0379279
0.0840792
0.0894823
0.0351115
0.0702597
0.0396367
0.0357586
0.0727452
0.0884651
0.0768598
0.0458835
0.0669412
0.0355388
0.0834213
0.0475393
0.0760817
0.0903234
0.0702178
0.0341129
0.0418197
0.0777132
0.0608228
0.0732631
0.0874919
0.0507527
0.0751344
0.0547585
0.0874472
0.0804543
0.0933966
0.0591861
0.0851229
0.0769556
0.0785279
0.0932093
0.111625
0.0620084
0.0870116
0.0824681
0.0858637
0.0890303
0.0703215
0.0843418
0.0745502
0.0887522
0.0744027
0.0888724
0.0850759
0.0791778
0.0605208
0.0919445
0.078979
0.0716735
0.0582138
0.0505003
0.0625973
0.0629323
0.072866
0.0752631
0.0568473
0.0511778
0.0770728
0.0500107
0.0769474
0.0776059
0.0748112
0.0659545
0.0537731
0.0769362
0.0450208
0.0794697
0.0780738
0.0736488
0.0851048
0.0954682
0.0799119
0.0808845
0.0775721
0.087458
0.0769457
0.0441949
0.0752524
0.085457
0.0480012
0.077351
0.0562116
0.0533847
0.0685398
0.0490812
0.0770215
0.0781758
0.0971646
0.0873262
0.0872329
0.0614089
0.0842558
0.0939229
0.0546373
0.0536141
0.0871722
0.0511192
0.0913687
0.0935306
0.0948899
0.03959
0.0512396
0.0900947
0.0505928
0.0825082
0.0948753
0.0639732
0.0745746
0.0641381
0.0825059
0.0843238
0.0730691
0.0850519
0.0666507
0.0713816
0.0690256
0.0738878
0.0762566
0.0937125
0.0824712
0.0871669
0.0883412
0.0479624
0.0822569
0.0744816
0.0824733
0.0920354
0.0430073
0.0816508
0.0731985
0.0831845
0.0896181
0.064394
0.0920832
0.0831294
0.0885463
0.047316
0.065589
0.0822406
0.0836077
0.0856331
0.0975591
0.097518
0.0973741
0.0969448
0.0940532
0.0877965
0.0948087
0.100588
0.100893
0.0967832
0.0920823
0.0977407
0.09898
0.0965085
0.0967953
0.0952804
0.10441
0.0937712
0.0983134
0.0940861
0.0989825
0.0956095
0.0959484
0.102331
0.100415
0.100604
0.10109
0.094993
0.0955594
0.09512
0.0987627
0.0960411
0.0976322
0.0979341
0.0962634
0.0953376
0.095021
0.10637
0.0957944
0.0993035
0.0965012
0.095054
0.0965072
0.0957291
0.0984015
0.0959004
0.100211
0.100377
0.0949508
0.0986181
0.0998749
0.099972
0.0947201
0.101241
0.0985286
0.0472166
0.0567815
0.0591337
0.0675225
0.0991357
0.0966368
0.0929749
0.0966615
0.100574
0.0932892
0.0937634
0.0913209
0.0815585
0.0984431
0.0881019
0.0921507
0.0842931
0.0943627
0.0686366
0.0858976
0.096466
0.0515003
0.085575
0.0564323
0.0849748
0.0997568
0.104449
0.0945024
0.100208
0.0999002
0.0955391
0.0943726
0.0872003
0.0740869
0.0628335
0.0695001
0.0971183
0.0862473
0.0845825
0.0535109
0.0837896
0.0967279
0.0830377
0.0848585
0.0762316
0.0804963
0.09081
0.0985361
0.10197
0.0971784
0.0479184
0.0975563
0.0966724
0.0869325
0.0664601
0.0544443
0.0681133
0.0982479
0.0857564
0.0841276
0.0800427
0.0860178
0.0997877
0.0642362
0.0880525
0.0778706
0.0855892
0.0974819
0.0988139
0.0989239
0.0984957
0.0813854
0.100197
0.100434
0.0995766
0.0982553
0.0973364
0.0451079
0.0798229
0.0844857
0.0393349
0.0599081
0.0436504
0.0707941
0.0701157
0.0532999
0.0711499
0.0511231
0.0650175
0.0641686
0.0758283
0.0673338
0.0834924
0.0787455
0.0886744
0.0955415
0.0961788
0.0957199
0.100768
0.0969526
0.0965657
0.096934
0.0832778
0.0906148
0.0635085
0.0729152
0.0826201
0.0870438
0.0470773
0.0421544
0.0451096
0.052403
0.0798289
0.0845155
0.0969042
0.0945801
0.0977125
0.100347
0.0978845
0.106004
0.0516937
0.0807586
0.0779637
0.0741479
0.0815303
0.0684115
0.0851437
0.0386075
0.0600995
0.0556792
0.0378371
0.0432555
0.0609976
0.0479013
0.0970548
0.0975133
0.0966794
0.0961865
0.0982345
0.09972
0.0764407
0.0567594
0.0861664
0.0789357
0.0720293
0.0882774
0.0739767
0.0464138
0.04018
0.0517296
0.0649079
0.0619335
0.0416166
0.0816482
0.101899
0.100561
0.0989481
0.096878
0.101713
0.0998441
0.0545344
0.0877239
0.0920621
0.0836894
0.0939855
0.0770925
0.0956184
0.079298
0.0819808
0.0393042
0.0978797
0.0940461
0.0975375
0.091697
0.0775028
0.0971853
0.0832803
0.0962747
0.097867
0.0942093
0.0962714
0.0979746
0.05106
0.0468566
0.0875578
0.0715246
0.0818142
0.0901042
0.0837616
0.096657
0.100552
0.0938713
0.0979028
0.0980218
0.099762
0.0979418
0.0661149
0.0913049
0.0918148
0.0873539
0.0810698
0.0920313
0.0960034
0.0946699
0.096468
0.0946279
0.0987866
0.0951012
0.101157
0.0992113
0.0944322
0.0951498
0.0949033
0.0983491
0.0963157
0.0969135
0.0954055
0.0965705
0.0972215
0.0965497
0.0964545
0.095318
0.096126
0.0960319
0.0959176
0.0974613
0.10111
0.0955956
0.0952559
0.0960744
0.0952898
0.0950315
0.0989683
0.101604
0.0957268
0.0953626
0.0961573
0.0955913
0.0969832
0.0970904
0.0982764
0.0952628
0.0952466
0.0955533
0.0952556
0.0949836
0.101763
0.0935324
0.0963216
0.0955309
0.0962335
0.095461
0.0989894
0.102031
0.0946058
0.0955482
0.095566
0.094881
0.0625928
0.0777038
0.0642301
0.0807245
0.0831125
0.0801411
0.0897391
0.0925999
0.078696
0.0902751
0.0821023
0.094703
0.085829
0.0397223
0.0819653
0.0873439
0.0362689
0.0578333
0.0376434
0.0361458
0.0870985
0.095092
0.0954135
0.0533367
0.0399193
0.0808499
0.0362591
0.0845636
0.037785
0.0574716
0.0361646
0.0451695
0.0890129
0.078506
0.0603682
0.0847248
0.0666596
0.0408458
0.0953473
0.0871329
0.094911
0.0824187
0.0953238
0.0870302
0.0948091
0.0950624
0.0862059
0.0855845
0.0917563
0.0875607
0.0920258
0.0953336
0.0540578
0.0393371
0.0502817
0.059051
0.0230353
0.0609405
0.0718547
0.0764872
0.0852101
0.082271
0.0898832
0.0440594
0.0493957
0.0764851
0.0833259
0.0810689
0.0797898
0.0503028
0.0524841
0.0814022
0.0847798
0.0789945
0.0431633
0.0794091
0.0452649
0.083275
0.0521624
0.0400769
0.0844617
0.0781033
0.0905658
0.0498584
0.0904077
0.0488615
0.0844145
0.0892733
0.0842383
0.0842171
0.0915744
0.083974
0.0741753
0.0753429
0.0682608
0.0471071
0.0754936
0.0763177
0.06938
0.0779831
0.0797333
0.0656425
0.0575395
0.0694698
0.0485805
0.0762589
0.046524
0.0921272
0.0797278
0.0918386
0.0828255
0.0814371
0.0764982
0.0461781
0.0443064
0.0412529
0.0609534
0.0555513
0.0863412
0.0843435
0.0784142
0.0887202
0.0521364
0.0556656
0.0333724
0.0330661
0.0813122
0.0941111
0.0832017
0.0535147
0.0804337
0.0602726
0.0669434
0.0603269
0.0345839
0.0386078
0.048483
0.0392058
0.0417317
0.0693724
0.0879465
0.0901635
0.066513
0.086872
0.0514187
0.0776951
0.0424319
0.041429
0.0603845
0.0392505
0.0609077
0.0686839
0.0946352
0.086081
0.0809415
0.0877261
0.0781439
0.0647661
0.0548617
0.053528
0.0705347
0.0749912
0.0624531
0.0668935
0.0870384
0.0814475
0.078136
0.0858581
0.0691023
0.0824344
0.0366904
0.0388132
0.0465099
0.080766
0.0485581
0.0394648
0.0588929
0.0520846
0.0855858
0.0860514
0.086664
0.0852139
0.0824594
0.0612547
0.0295518
0.0529019
0.0585347
0.0398302
0.0602271
0.0294516
0.038633
0.019287
0.0707061
0.0434873
0.0494703
0.0491649
0.069051
0.058617
0.049639
0.0853883
0.0811493
0.0711178
0.0544877
0.0820133
0.085336
0.0510055
0.0756234
0.0774172
0.0469697
0.0494874
0.0743402
0.0753074
0.0452072
0.036512
0.0911566
0.0356335
0.0920222
0.0358031
0.0596445
0.0361038
0.0383378
0.0568865
0.06456
0.0374107
0.058552
0.0378741
0.0315486
0.0365935
0.0357135
0.0897773
0.0888716
0.0599593
0.0361659
0.0362432
0.0358833
0.0761808
0.0606003
0.0859996
0.039271
0.0776005
0.0526036
0.0329443
0.0579829
0.0384262
0.0603572
0.038251
0.0638434
0.0426023
0.0958151
0.0860421
0.0921615
0.0867998
0.0956367
0.0847745
0.0950517
0.0947257
0.0828714
0.0951548
0.0755837
0.0953999
0.0845098
0.0944745
0.094714
0.086823
0.0752746
0.0953545
0.0830436
0.0950601
0.0940401
0.057134
0.0584312
0.0450243
0.0392323
0.0454962
0.0567882
0.0630142
0.0463907
0.0407367
0.0601746
0.0601336
0.08213
0.0823599
0.0827322
0.082964
0.0430956
0.0472538
0.0626813
0.0763265
0.0718606
0.0601328
0.0334708
0.0750021
0.0804927
0.0813021
0.0888003
0.0667486
0.0747101
0.0748438
0.0891957
0.0922046
0.0971171
0.0791587
0.0851706
0.0837182
0.073737
0.0531175
0.0738068
0.0733516
0.0886882
0.0980545
0.0920595
0.0826475
0.0965848
0.0862118
0.0867829
0.0821596
0.0886897
0.0833756
0.0917308
0.0889783
0.084785
0.0870877
0.0756631
0.0830517
0.0884583
0.0827101
0.0885604
0.0794491
0.0771965
0.0956133
0.0886313
0.0773285
0.087646
0.0726018
0.0804155
0.0906258
0.0666723
0.0872638
0.0772852
0.0850397
0.0713515
0.0820494
0.082255
0.0769293
0.0778627
0.0840625
0.0507982
0.0463489
0.0543366
0.0759809
0.0721718
0.0771237
0.0871348
0.074459
0.0797292
0.0809936
0.0455304
0.0373177
0.0445126
0.0566707
0.0598143
0.0733014
0.0719115
0.0794584
0.0921051
0.0732546
0.0761586
0.083046
0.0724647
0.0887417
0.0936459
0.0852316
0.0813591
0.0773344
0.0847249
0.0729178
0.0763258
0.0790987
0.0874149
0.077516
0.0773953
0.0865568
0.0727856
0.0673421
0.0711266
0.0782167
0.043049
0.0755356
0.0846569
0.0846238
0.054242
0.0700366
0.0702023
0.0405203
0.0558803
0.0594034
0.0383444
0.0445283
0.0478094
0.0727161
0.0803124
0.0790543
0.095837
0.0741929
0.0781202
0.085595
0.0747161
0.0809973
0.0807444
0.0852221
0.0842271
0.0740451
0.0866476
0.0789153
0.0779734
0.0589282
0.0781142
0.0840895
0.0769699
0.064155
0.0571739
0.0437293
0.039741
0.0414656
0.0463173
0.0470935
0.0442559
0.0758419
0.0902919
0.0919651
0.0972024
0.0798553
0.0873921
0.0825994
0.078767
0.070844
0.0794394
0.0870657
0.0752908
0.0629239
0.084847
0.0937609
0.0611254
0.0401243
0.0800961
0.0510324
0.085444
0.0814159
0.0750911
0.0681859
0.0717701
0.079117
0.0700252
0.0710403
0.0491444
0.0766737
0.0475066
0.0509449
0.0749496
0.0698622
0.0789906
0.050864
0.0924282
0.0828668
0.0940366
0.0977731
0.0877296
0.0908223
0.0955751
0.0931478
0.0875598
0.0992595
0.0963968
0.0902871
0.0946157
0.0963158
0.0884986
0.0911875
0.0940112
0.0996627
0.084258
0.0898898
0.0992354
0.0795334
0.094129
0.0864004
0.0842552
0.0453633
0.0862579
0.0646666
0.0828393
0.0788306
0.0805392
0.051142
0.0495172
0.059075
0.0439176
0.0872758
0.0717268
0.0546121
0.0831748
0.0354329
0.0807434
0.085432
0.0914363
0.0892229
0.0928435
0.0830992
0.0850159
0.0936
0.0900134
0.0918736
0.0966377
0.0972881
0.0891355
0.0785882
0.0946002
0.0512485
0.0495353
0.0593894
0.0402583
0.0755089
0.0620359
0.0788984
0.0801866
0.0880346
0.0867101
0.0932404
0.0963254
0.0944262
0.0899577
0.0795348
0.0957683
0.0326261
0.0546621
0.0754822
0.0534768
0.072683
0.0700842
0.0427625
0.0470524
0.0507706
0.04609
0.0672927
0.0496902
0.0604179
0.0688728
0.0714548
0.069285
0.0696479
0.0691821
0.0695329
0.0723459
0.0776464
0.0599052
0.0712251
0.0741681
0.0701299
0.0705881
0.0691204
0.0683275
0.0803432
0.0770792
0.0513386
0.048085
0.0816549
0.0796949
0.0811806
0.079352
0.0813985
0.0789217
0.0810623
0.0478767
0.072206
0.0460388
0.0803957
0.0806899
0.0807441
0.0808114
0.0809403
0.0820352
0.0773557
0.0720413
0.0627795
0.0590643
0.0709862
0.0767766
0.0637238
0.0812919
0.0880428
0.0655342
0.06054
0.0778173
0.0915781
0.0633676
0.0817763
0.0602272
0.0875476
0.0618948
0.0895542
0.0814749
0.0645774
0.0998114
0.0822266
0.0763082
0.0837364
0.0777129
0.0789626
0.0865758
0.0700609
0.0667183
0.0666468
0.0657001
0.0706892
0.079563
0.079839
0.0876313
0.0744098
0.0797088
0.092433
0.0949695
0.0950786
0.0918257
0.0671474
0.081282
0.0792388
0.0894063
0.0808832
0.0803067
0.0899272
0.0864325
0.0898258
0.0863073
0.0621808
0.081335
0.0696075
0.0864526
0.0884223
0.0669321
0.0713806
0.0734178
0.0888292
0.0862577
0.0797248
0.0701172
0.0504357
0.0671348
0.081614
0.0825115
0.0718375
0.0735159
0.0438931
0.0503164
0.0559137
0.0668573
0.0708029
0.0559047
0.0437213
0.0549749
0.0679049
0.0856186
0.0821482
0.0726637
0.0985242
0.0880933
0.0631877
0.0624206
0.080153
0.0792808
0.0822525
0.0877515
0.0515121
0.0507356
0.080546
0.0868188
0.0871511
0.0791889
0.0532803
0.0489567
0.0698858
0.0510444
0.0757829
0.0737169
0.0734055
0.0863134
0.0872343
0.0657537
0.0552683
0.0747629
0.0705059
0.0855729
0.0516682
0.0719648
0.0821352
0.0842743
0.0763347
0.0545891
0.0707895
0.0732539
0.0738378
0.0779134
0.0706949
0.0964439
0.0840098
0.0887253
0.0855245
0.0884573
0.0740138
0.0801475
0.0704176
0.0811207
0.0722174
0.0871806
0.0864141
0.0764886
0.0949907
0.055011
0.094396
0.0876999
0.0603662
0.0798156
0.0768007
0.0944038
0.0650011
0.0857437
0.0813937
0.0936623
0.0989294
0.0791658
0.0875655
0.0616417
0.0870173
0.0842121
0.0631873
0.0885772
0.0800009
0.0338351
0.0380963
0.038243
0.0448554
0.0723374
0.0795897
0.0897335
0.073209
0.0780437
0.0671029
0.0771657
0.0556049
0.0895853
0.0702685
0.0781763
0.0561137
0.062236
0.0404805
0.0735855
0.0701904
0.0664639
0.0494301
0.0378854
0.0519388
0.0637377
0.0602204
0.065858
0.0888586
0.072995
0.0599339
0.0785032
0.0556299
0.0710857
0.0692825
0.063291
0.0642735
0.0716817
0.07508
0.0603215
0.0668025
0.0720351
0.0561995
0.04545
0.0562029
0.0693052
0.0555098
0.0754931
0.0641719
0.0386024
0.0663974
0.0752133
0.0640111
0.0640239
0.0849017
0.0938099
0.078702
0.0606414
0.0826977
0.0688078
0.0721202
0.0755406
0.0887235
0.0774698
0.0594325
0.051747
0.0598425
0.0716797
0.0581342
0.0706762
0.0911084
0.0731559
0.102375
0.0779482
0.0575632
0.0646615
0.0636811
0.0799424
0.0733136
0.0765492
0.0768418
0.0700376
0.0576739
0.0734877
0.072244
0.0818829
0.081403
0.0704748
0.0670322
0.0720351
0.081753
0.0811788
0.0787443
0.0874947
0.0895456
0.0802605
0.0715249
0.0823906
0.0901633
0.0493191
0.0541888
0.144276
0.0444688
0.0462535
0.0702803
0.0825058
0.0455027
0.0825536
0.0479468
0.0473416
0.0471873
0.0511871
0.0490425
0.0776011
0.0803033
0.0820068
0.0702356
0.079722
0.0792464
0.0882146
0.0799287
0.0785019
0.0802071
0.0516067
0.0441177
0.0788207
0.0802583
0.0818676
0.0776964
0.0702802
0.0448274
0.0684574
0.0808703
0.0787423
0.0839856
0.0689952
0.0804815
0.082648
0.0879138
0.0955966
0.0841757
0.0875918
0.0898888
0.0995109
0.0447549
0.050306
0.0748858
0.0791996
0.0502471
0.0586624
0.0740148
0.0399773
0.0511856
0.0609351
0.045672
0.0436679
0.0722462
0.0854315
0.0468374
0.0753502
0.0390603
0.0462245
0.0632194
0.0625843
0.0453875
0.0452394
0.0813054
0.0869052
0.0585508
0.0775443
0.0554095
0.0625367
0.0579284
0.0733171
0.0854694
0.0767254
0.0730227
0.0594037
0.0575685
0.0588783
0.0841427
0.0898757
0.0735654
0.0585352
0.0850708
0.0890314
0.0867507
0.0866679
0.072722
0.0889326
0.0831051
0.0883063
0.0715135
0.0867179
0.0987047
0.0919165
0.0824555
0.0826058
0.0875839
0.0933338
0.0933504
0.0852442
0.083682
0.0933337
0.0750079
0.0474696
0.0473315
0.0702423
0.0674425
0.04183
0.0664031
0.0766086
0.0498562
0.0497591
0.0732515
0.0691874
0.046453
0.0768409
0.0786572
0.051112
0.0742493
0.0763503
0.0666032
0.0718582
0.0836324
0.0776093
0.0823424
0.0493137
0.0504516
0.0463035
0.0730605
0.0770529
0.0814655
0.091414
0.0812214
0.0846457
0.0776181
0.0838276
0.0890116
0.0422839
0.0910616
0.0882047
0.0778429
0.0519759
0.0801973
0.0806331
0.0528164
0.0924909
0.0932776
0.0854682
0.0539546
0.0765632
0.0946152
0.0774311
0.0935106
0.0869084
0.0938275
0.0863504
0.0919585
0.0919679
0.0472332
0.0639579
0.0805752
0.0718507
0.0603536
0.0515429
0.0707478
0.0450673
0.0476102
0.0385407
0.0426403
0.0632918
0.0596822
0.0682005
0.0561052
0.0509157
0.0432909
0.0450218
0.0719705
0.0524986
0.0666167
0.0378903
0.0568631
0.070192
0.0437426
0.0761838
0.0377376
0.0645796
0.0486971
0.0728044
0.0666031
0.0782939
0.0592008
0.0669641
0.035961
0.0605419
0.0423368
0.0537872
0.0725306
0.0367797
0.0539503
0.0565691
0.0790038
0.0811787
0.0749986
0.0857256
0.0867639
0.0886299
0.0516714
0.0799175
0.0954753
0.080185
0.0922719
0.0807719
0.0896064
0.0671659
0.0835
0.090632
0.0865346
0.0836405
0.0957882
0.0958992
0.0445222
0.0725473
0.0753255
0.0434026
0.0476622
0.0577044
0.041723
0.0375738
0.0393873
0.0537145
0.0335229
0.0412367
0.035164
0.055617
0.0449461
0.0544388
0.042581
0.0325293
0.0427821
0.0571511
0.0646498
0.0464626
0.0509268
0.0378484
0.0351965
0.0636742
0.0489321
0.0415059
0.0399164
0.0311195
0.0562939
0.0347692
0.0412272
0.0569322
0.040906
0.0474763
0.0633
0.0481803
0.0573892
0.0392323
0.0504529
0.0663495
0.0456546
0.042569
0.0249475
0.0433511
0.0736215
0.0434097
0.0741159
0.0416203
0.0443355
0.0584339
0.0418392
0.0732172
0.0670237
0.0443139
0.0378204
0.0546124
0.0370952
0.0377487
0.0396907
0.0422759
0.0533955
0.0758899
0.0682713
0.0472113
0.0393602
0.0616893
0.0159875
0.044259
0.0411778
0.0417494
0.0314182
0.0426724
0.0775297
0.0778932
0.0457381
0.0418037
0.0749172
0.0358342
0.0455914
0.0425925
0.0543756
0.0410042
0.0438324
0.0525868
0.0828344
0.0755446
0.0524008
0.0385678
0.0751808
0.0455895
0.0583602
0.0479365
0.0584318
0.0430368
0.0308852
0.0358193
0.044004
0.0393025
0.0618133
0.0696181
0.0635032
0.0508204
0.0532749
0.0433469
0.0438037
0.0687609
0.049248
0.0500641
0.0558554
0.0431166
0.0688981
0.0472974
0.0697796
0.0391274
0.0737307
0.0551163
0.0715307
0.0429021
0.0746619
0.0472903
0.076977
0.0727394
0.0402717
0.0702846
0.0644887
0.0875529
0.0734941
0.0865377
0.0729342
0.0567983
0.0693781
0.0447439
0.0498659
0.051486
0.0699097
0.0620935
0.069706
0.0635408
0.0543983
0.06537
0.075264
0.0416001
0.062109
0.0363675
0.071424
0.0402663
0.0668613
0.0682364
0.0615117
0.0526517
0.0715525
0.0702932
0.0466334
0.0676428
0.0169147
0.0397028
0.0583433
0.0311751
0.0705331
0.0709031
0.0739149
0.00675355
0.0253155
0.0569521
0.0690302
0.0694271
0.0209909
0.0617613
0.0318061
0.054828
0.0690681
0.0702725
0.0667104
0.0705009
0.0720269
0.0764482
0.0713678
0.0751639
0.0731628
0.0803986
0.0708544
0.0838464
0.0723001
0.0668106
0.0711407
0.0775544
0.0718383
0.071699
0.0692996
0.073643
0.0782898
0.0800127
0.0831853
0.0771163
0.0771955
0.0773754
0.0791845
0.0755496
0.0785106
0.0742369
0.0818371
0.0757047
0.0767172
0.0741116
0.0754936
0.0755472
0.051324
0.0179281
0.0105715
0.0462431
0.0227309
0.0170666
0.0408316
0.0524161
0.0625855
0.0204494
0.0473935
0.0495166
0.00875645
0.0604858
0.0273392
0.0495872
0.0418534
0.0604733
0.0407507
0.0689513
0.0448675
0.0468544
0.0490334