/*--------------------------------*- C++ -*----------------------------------*\
  =========                 |
  \\      /  F ield         | OpenFOAM: The Open Source CFD Toolbox
   \\    /   O peration     | Website:  https://openfoam.org
    \\  /    A nd           | Version:  10
     \\/     M anipulation  |
\*---------------------------------------------------------------------------*/
FoamFile
{
    format      ascii;
    class       volScalarField;
    location    "0.1";
    object      k_0;
}
// * * * * * * * * * * * * * * * * * * * * * * * * * * * * * * * * * * * * * //

dimensions      [0 2 -2 0 0 0 0];

internalField   nonuniform List<scalar> 
114940
(
0.0992613
0.0954626
0.0991343
0.0956448
0.0967984
0.095364
0.0956757
0.0953603
0.0953239
0.0955249
0.0951848
0.0950022
0.0950447
0.0955557
0.0958566
0.0953508
0.0949296
0.0948932
0.0949896
0.0949925
0.095585
0.0953117
0.0954703
0.0949149
0.0949971
0.0949966
0.0955057
0.095475
0.095327
0.0950631
0.0951841
0.0951386
0.0955858
0.0955516
0.0948842
0.0974155
0.0983223
0.0976795
0.0958053
0.0949398
0.0969674
0.0965236
0.101069
0.0966573
0.095564
0.0974295
0.0953861
0.0997663
0.102493
0.097482
0.09685
0.0951597
0.0950344
0.0967209
0.101317
0.102027
0.100233
0.0989487
0.0968304
0.0949543
0.0952542
0.0965029
0.0993353
0.102393
0.100328
0.0984863
0.096122
0.0954114
0.0951028
0.103135
0.102589
0.0970665
0.101625
0.0986059
0.0966862
0.0999823
0.100899
0.0969708
0.0960291
0.0952438
0.095543
0.0953084
0.0961014
0.0957599
0.0960259
0.0951698
0.0952314
0.0952738
0.0953782
0.0952453
0.0955638
0.0954327
0.0955927
0.0957112
0.0954889
0.0963033
0.0954136
0.0949742
0.0971829
0.0979968
0.0992051
0.0967836
0.0957033
0.0983155
0.0985947
0.0967449
0.100485
0.102083
0.0975774
0.0986472
0.0984721
0.0972913
0.103757
0.103376
0.101932
0.0968904
0.096761
0.0962237
0.0992593
0.100154
0.102632
0.101634
0.0997625
0.098523
0.0967348
0.0953521
0.095272
0.0959027
0.103271
0.105892
0.0984784
0.0983462
0.0988645
0.0995395
0.0969103
0.0956024
0.0955278
0.0967173
0.101555
0.101463
0.0986267
0.0986783
0.0992689
0.0998746
0.0984912
0.098865
0.0975399
0.100317
0.101844
0.100347
0.0988575
0.0960952
0.0960043
0.098114
0.0959137
0.0976978
0.100926
0.0963119
0.100523
0.0994942
0.0975138
0.0963089
0.100325
0.102835
0.0971663
0.101244
0.0987265
0.100136
0.101155
0.0973592
0.0954454
0.0954419
0.0964734
0.0957652
0.0953194
0.0893773
0.0974635
0.100347
0.101441
0.0971275
0.0440682
0.0859943
0.0974488
0.104196
0.1038
0.100962
0.088505
0.0906728
0.0901259
0.095585
0.102021
0.10895
0.102329
0.100755
0.0987646
0.0945627
0.0960554
0.0962523
0.10162
0.0989455
0.10181
0.106367
0.0995542
0.0960901
0.100668
0.096396
0.0972101
0.0965758
0.102501
0.10377
0.109935
0.101438
0.101298
0.101009
0.0995213
0.0963465
0.0984079
0.0980889
0.0998913
0.102103
0.100846
0.10171
0.0980721
0.10104
0.100014
0.100653
0.0977841
0.0996989
0.106224
0.0997952
0.111921
0.0990081
0.0999659
0.0988837
0.101339
0.100245
0.102477
0.101114
0.110449
0.099835
0.0990714
0.099562
0.103413
0.108199
0.0989313
0.111296
0.101504
0.0990436
0.0981804
0.0973253
0.0999175
0.104568
0.0953081
0.095017
0.0949816
0.0954105
0.0960585
0.0958801
0.0953685
0.0887701
0.0964921
0.10239
0.101431
0.097137
0.0861413
0.0983513
0.0989189
0.105542
0.100949
0.0816833
0.100309
0.100237
0.101855
0.10062
0.0964661
0.0964424
0.0474065
0.0924291
0.100911
0.0984863
0.107441
0.0991027
0.0966751
0.100253
0.0978456
0.0829071
0.0516218
0.0861162
0.101291
0.106188
0.101682
0.101465
0.100105
0.0990485
0.0976293
0.0466867
0.0402897
0.082331
0.104814
0.0996324
0.101103
0.09807
0.0997068
0.0996161
0.100215
0.0824275
0.0594401
0.0912061
0.103103
0.11317
0.0983652
0.100515
0.100801
0.101455
0.084051
0.0401976
0.120144
0.128168
0.0998329
0.103233
0.102004
0.0998956
0.10174
0.105306
0.131761
0.101442
0.102279
0.0987656
0.0958972
0.102904
0.104078
0.0952971
0.0949948
0.0949637
0.0953807
0.0957833
0.09515
0.0949228
0.0755139
0.098098
0.0992446
0.0968671
0.095715
0.0861273
0.0988405
0.100826
0.101931
0.097679
0.066891
0.088404
0.0967838
0.101338
0.0985401
0.105153
0.101974
0.0960844
0.100123
0.0985249
0.0955635
0.0994358
0.103008
0.0993342
0.100621
0.101351
0.0985502
0.0973227
0.0977686
0.102132
0.0977852
0.0990742
0.103637
0.0986854
0.106129
0.100567
0.097732
0.100975
0.104083
0.0989717
0.099207
0.0982875
0.102007
0.102127
0.100199
0.099355
0.0996566
0.102142
0.0996715
0.102849
0.097304
0.0980436
0.103302
0.103543
0.10374
0.0959641
0.0987371
0.103524
0.102239
0.0975359
0.104015
0.105861
0.127819
0.0959778
0.100122
0.103338
0.10039
0.10203
0.111348
0.104522
0.101662
0.1025
0.103788
0.101677
0.0954886
0.0954255
0.0953654
0.0967507
0.100122
0.0983002
0.107305
0.0964663
0.106679
0.0981694
0.105538
0.100488
0.108763
0.098418
0.0961412
0.0966767
0.0989914
0.102346
0.0975125
0.0952085
0.0960213
0.0958519
0.0968451
0.0965069
0.0954257
0.0969073
0.102332
0.102218
0.0960975
0.0957647
0.0971507
0.0997425
0.0990098
0.0961294
0.0958317
0.0979835
0.0982174
0.101486
0.0987166
0.100199
0.101218
0.0973381
0.0962565
0.0955651
0.0969871
0.105897
0.100199
0.0960805
0.101712
0.101145
0.0992257
0.0956927
0.0963643
0.109688
0.104514
0.098298
0.0962328
0.0962529
0.10104
0.10231
0.099504
0.0967189
0.104629
0.103956
0.101592
0.101956
0.104565
0.102873
0.0961389
0.0960559
0.0957303
0.102312
0.0991748
0.0967046
0.105023
0.0997887
0.0959021
0.0953116
0.0964149
0.0997727
0.100971
0.0965754
0.0952839
0.095644
0.0954565
0.0950973
0.0951475
0.0955246
0.0950716
0.0950053
0.0950871
0.0955443
0.0957438
0.0950623
0.0951084
0.0951262
0.094903
0.0950587
0.095041
0.0956516
0.0958451
0.0957711
0.0954857
0.0949349
0.0950384
0.0950519
0.0955056
0.0961046
0.0966915
0.0951624
0.0954153
0.0950397
0.095423
0.0955292
0.0964301
0.0951832
0.0952638
0.095472
0.0965986
0.0958626
0.095616
0.0948727
0.0951444
0.0948825
0.095319
0.0953289
0.094963
0.0950671
0.0953268
0.0951221
0.0970358
0.0972349
0.0931033
0.0913414
0.0881059
0.100155
0.0962105
0.0991653
0.0542344
0.0928503
0.0879687
0.0834218
0.102035
0.0989132
0.099782
0.0898963
0.089729
0.0943731
0.0935627
0.0982717
0.0993811
0.0981444
0.0968874
0.0926811
0.0990171
0.0952501
0.103257
0.0877928
0.0949069
0.0837961
0.078762
0.101418
0.0871961
0.0950437
0.0887786
0.0952591
0.0875709
0.0949063
0.0905015
0.0967338
0.0391793
0.090224
0.0800066
0.0909757
0.086705
0.0837664
0.0940993
0.0871017
0.0865172
0.0867077
0.0967028
0.0781775
0.0878378
0.0974355
0.09324
0.0371309
0.100157
0.088344
0.0853048
0.0967548
0.0861195
0.0913695
0.0373945
0.0797891
0.0954912
0.0879869
0.0738361
0.094314
0.0947574
0.0937952
0.0818614
0.0945206
0.0789495
0.087464
0.0992878
0.100721
0.0963878
0.0387992
0.0996688
0.0966663
0.0892356
0.0973791
0.0870693
0.0378131
0.0929006
0.0671987
0.0863606
0.0968134
0.0883212
0.0794598
0.066445
0.0541741
0.0819233
0.0982888
0.0879114
0.0538342
0.0861549
0.0355132
0.094745
0.101977
0.0953491
0.0391827
0.0796384
0.0769908
0.0448
0.107806
0.060857
0.0889529
0.0950202
0.0789929
0.0951581
0.105963
0.087298
0.0601865
0.0761077
0.0949959
0.0892887
0.0965252
0.0779952
0.0951717
0.0839068
0.0952778
0.0408966
0.0737334
0.084124
0.0748895
0.0786911
0.0829232
0.0982627
0.0865217
0.0446141
0.0776528
0.10313
0.0935149
0.0905348
0.0407293
0.0805356
0.087112
0.0985488
0.0958958
0.0740209
0.0798875
0.0921712
0.0927001
0.0985891
0.0873639
0.0784661
0.074815
0.0505439
0.0973364
0.09258
0.0965084
0.0808703
0.0839183
0.0712921
0.0362584
0.0967439
0.0939074
0.0973342
0.0840868
0.0699862
0.0788418
0.0569625
0.0968084
0.0938796
0.0990682
0.0952003
0.0599667
0.0912765
0.0956149
0.0604464
0.0739859
0.0951
0.101136
0.0949806
0.0559177
0.0792674
0.0968755
0.100522
0.0964482
0.0963294
0.0959157
0.0955321
0.0980464
0.0964452
0.0975178
0.0987162
0.0952075
0.0955683
0.095013
0.0991239
0.0946734
0.0986863
0.095853
0.0951077
0.0955407
0.0950341
0.0986238
0.0957397
0.098463
0.0959886
0.059767
0.0682923
0.0683159
0.0779203
0.0906567
0.0793806
0.0887545
0.0835255
0.073694
0.0838132
0.0900308
0.0873552
0.0520212
0.0671808
0.0827379
0.0971089
0.0537151
0.0855907
0.0627576
0.0577177
0.0954675
0.0977677
0.0896291
0.0936195
0.0963259
0.0527248
0.0883443
0.088161
0.0983159
0.100915
0.0974896
0.0815591
0.0968279
0.0944057
0.0902442
0.0956685
0.0898752
0.0756294
0.0564506
0.0981157
0.0686946
0.0954435
0.0972858
0.0960025
0.0874634
0.0953347
0.0377996
0.0810199
0.087628
0.10016
0.0923522
0.0351257
0.0959826
0.0763171
0.0953948
0.0972642
0.0958407
0.0846007
0.0942465
0.0436966
0.0923099
0.0977607
0.0982852
0.0993466
0.0822201
0.047309
0.0962928
0.0809825
0.0959922
0.0952579
0.0834446
0.0835457
0.0954341
0.0964462
0.0896919
0.0978206
0.076259
0.0830929
0.0951602
0.0884658
0.093828
0.0885782
0.0472976
0.0941477
0.08597
0.0819418
0.0902074
0.0722696
0.0524001
0.0778568
0.0871357
0.0601429
0.0420106
0.0706954
0.0673096
0.0720776
0.0944359
0.0899106
0.103328
0.0912279
0.0970264
0.0949313
0.0445507
0.099309
0.0953662
0.0964838
0.0984838
0.102287
0.0975512
0.0940923
0.0772533
0.0978986
0.0899641
0.0975559
0.0938883
0.0756067
0.0601598
0.0568042
0.0718672
0.0450327
0.0674977
0.0767956
0.0954644
0.0551924
0.0863264
0.113481
0.0924188
0.0964216
0.0952762
0.0498062
0.0933559
0.0477453
0.0956709
0.0887134
0.0964703
0.0859179
0.0780256
0.0750537
0.0442909
0.0805153
0.0755202
0.0869091
0.0949136
0.0382931
0.0798188
0.111952
0.0924177
0.0982676
0.0940996
0.0385943
0.0963802
0.0782463
0.0969372
0.0831317
0.0971542
0.0979145
0.0937759
0.0575836
0.0560791
0.0642608
0.0517413
0.0882841
0.0904723
0.0957763
0.0567504
0.0920618
0.10705
0.0924869
0.0994501
0.0950517
0.0577733
0.0960957
0.0786947
0.0977879
0.0958222
0.0994421
0.0971858
0.0751746
0.0962294
0.105606
0.0937265
0.0829212
0.0708552
0.0734681
0.090847
0.0718286
0.08007
0.086839
0.0888097
0.102557
0.0965248
0.097395
0.0976676
0.0854347
0.100444
0.0961838
0.101475
0.0972534
0.100105
0.10037
0.0946417
0.0988027
0.0940396
0.095336
0.0950992
0.0954937
0.0950981
0.0967967
0.0981395
0.094454
0.0953849
0.0951746
0.0957619
0.0951417
0.0985663
0.0845672
0.0685084
0.0828824
0.0712595
0.0852353
0.0633018
0.0714288
0.0861449
0.0865028
0.0825378
0.0727721
0.0751705
0.08242
0.0768546
0.0658281
0.0812562
0.0646889
0.056899
0.0822985
0.06859
0.0815714
0.0618474
0.0788433
0.0382801
0.0755786
0.077258
0.0769193
0.0811693
0.0814747
0.0811323
0.0273038
0.0763208
0.0683786
0.0894797
0.0729099
0.0709514
0.0832274
0.0862933
0.074143
0.0491739
0.0705796
0.0706992
0.0442973
0.0724893
0.0462032
0.0728079
0.0893408
0.0810514
0.0879793
0.0866536
0.087093
0.0873328
0.0477398
0.0790941
0.036531
0.0382078
0.0449733
0.0327624
0.0427142
0.0773972
0.0370344
0.0431526
0.0429493
0.0453315
0.0802559
0.0784872
0.0790015
0.0570885
0.0927151
0.0879662
0.09129
0.0818162
0.0788471
0.0594477
0.0736937
0.0875549
0.0734927
0.0810036
0.0860926
0.080047
0.0838924
0.0818469
0.0857618
0.0496914
0.0849293
0.0764152
0.0704754
0.0718287
0.0922122
0.0782816
0.0757361
0.0805734
0.0786082
0.042842
0.0741263
0.0775036
0.0410525
0.092657
0.0860396
0.0476562
0.0868949
0.0567224
0.0854147
0.0886661
0.0500072
0.0891077
0.0552473
0.0565477
0.0386859
0.0427528
0.0724709
0.0450594
0.0526227
0.0452649
0.0518801
0.0469304
0.06283
0.0465906
0.0485846
0.0809171
0.053031
0.0563842
0.0564817
0.0557034
0.054773
0.0815561
0.0869215
0.0490182
0.0797447
0.0807377
0.0811104
0.0825263
0.0876143
0.0669896
0.088153
0.0882393
0.0512657
0.0877973
0.0572473
0.0556811
0.065843
0.0457291
0.0841865
0.0869816
0.0558104
0.062736
0.0641782
0.048293
0.0662486
0.0672842
0.0802071
0.0503858
0.0782974
0.0577881
0.0660952
0.0970993
0.0865317
0.0716528
0.0865312
0.0527699
0.0618699
0.0668553
0.0845919
0.0866676
0.0797864
0.0866457
0.075824
0.0623513
0.0522441
0.0557295
0.0522799
0.0519617
0.0543179
0.0529518
0.0790772
0.0581056
0.0685445
0.0571881
0.0682241
0.0527895
0.0666614
0.0513968
0.0538917
0.0534759
0.0711201
0.0632657
0.062882
0.0559887
0.0507221
0.0972074
0.0868372
0.0627688
0.0855067
0.0691392
0.055375
0.0494716
0.087673
0.0862085
0.0644599
0.0857941
0.0641259
0.0555843
0.0632198
0.0734679
0.0658435
0.0427928
0.0690592
0.0538375
0.0634072
0.0841219
0.0702505
0.0513664
0.0741661
0.0516679
0.0624328
0.0524443
0.0415973
0.0533024
0.0625754
0.0533473
0.0516453
0.0530483
0.0844588
0.0501555
0.0687582
0.0686563
0.0759084
0.0763559
0.0516063
0.0830592
0.0928335
0.0687664
0.0594393
0.0861351
0.0847335
0.0503969
0.0852718
0.0862688
0.052646
0.0572964
0.0863191
0.0872279
0.0494771
0.0745448
0.079389
0.0658383
0.0669296
0.0648606
0.0765736
0.0670317
0.0643804
0.0988098
0.0818153
0.0954504
0.0829617
0.0972187
0.0950309
0.0975167
0.0838624
0.0967859
0.0971271
0.0826723
0.0827985
0.0952386
0.0968437
0.0972861
0.0954069
0.0777904
0.0791252
0.0586112
0.0807536
0.0757287
0.0610984
0.0772839
0.0629519
0.0572742
0.042709
0.0756744
0.0634778
0.0485461
0.0610244
0.0398412
0.052209
0.0548347
0.041536
0.0381306
0.0843917
0.089719
0.0352561
0.0706082
0.0398907
0.0359449
0.0728895
0.0887592
0.0771863
0.046157
0.0672403
0.0357825
0.0837577
0.047835
0.0763548
0.0906145
0.0705063
0.0341205
0.0420727
0.0779915
0.0612706
0.0735667
0.0876488
0.0510328
0.0752551
0.0549326
0.0876557
0.0806903
0.0937579
0.0595677
0.0854823
0.0771476
0.0788019
0.093467
0.10867
0.0623841
0.0872667
0.0826401
0.0862114
0.0892327
0.0704941
0.0846611
0.0746624
0.0889674
0.0746534
0.0891449
0.0852754
0.0793994
0.0607536
0.0922025
0.0791934
0.0718883
0.0584504
0.0508097
0.0630135
0.063458
0.0731585
0.0755985
0.0572159
0.0515151
0.0773659
0.0498192
0.0772586
0.077854
0.0751558
0.0662269
0.0541518
0.0772341
0.0450254
0.0799043
0.0783617
0.0739186
0.0853439
0.095641
0.0801162
0.0811797
0.0777921
0.0876581
0.077175
0.044509
0.0755793
0.0857695
0.0482751
0.0775885
0.0564295
0.0536401
0.0688228
0.0493841
0.0772868
0.0784669
0.0973624
0.0875277
0.087481
0.06174
0.0844874
0.094082
0.0549015
0.05389
0.0874035
0.0512578
0.0916178
0.0937404
0.0950557
0.0398923
0.0514851
0.0902138
0.0506701
0.0826902
0.0950497
0.0644099
0.0747819
0.0645663
0.0827322
0.0845348
0.0733138
0.0853866
0.0669606
0.071654
0.0692863
0.0741603
0.0766203
0.0939504
0.0828027
0.08743
0.0886534
0.0482807
0.0825956
0.0747632
0.0826965
0.0922851
0.043261
0.0820182
0.0734522
0.0834028
0.0898521
0.0647133
0.0923125
0.0833704
0.0887819
0.0476076
0.0659059
0.082487
0.0838639
0.0858683
0.0976471
0.0976114
0.0974594
0.0970528
0.0941769
0.0880083
0.0949542
0.100755
0.100992
0.0969058
0.0923762
0.0978567
0.0991381
0.0965726
0.0968538
0.095349
0.104508
0.0938926
0.098402
0.0942032
0.0990566
0.0956566
0.0960184
0.102496
0.100559
0.100693
0.101251
0.0950588
0.0956078
0.0951837
0.0988578
0.0962026
0.0977509
0.0980843
0.0963219
0.0953868
0.095089
0.106518
0.0959248
0.0994074
0.0966215
0.0951217
0.0965484
0.0957949
0.0985002
0.0960796
0.100331
0.1005
0.0950249
0.0986691
0.0999404
0.100073
0.0948499
0.10141
0.098668
0.0474882
0.0570662
0.0594677
0.0677442
0.0992481
0.0967778
0.0931063
0.096765
0.100686
0.0934738
0.0938882
0.0915016
0.0817807
0.0985646
0.0883142
0.092284
0.0845228
0.094565
0.0688847
0.0860966
0.0966537
0.0517972
0.0857745
0.0568176
0.0852442
0.0998798
0.104558
0.0946386
0.100342
0.100024
0.0956974
0.0945006
0.0873973
0.0744348
0.0630281
0.0696652
0.0972566
0.0864509
0.0847967
0.0536385
0.0839763
0.0969141
0.0831314
0.0850629
0.0766274
0.0808698
0.0911154
0.0986287
0.102162
0.0973019
0.0481921
0.0976446
0.0968409
0.0871231
0.0667436
0.0547173
0.0684217
0.0984382
0.0859544
0.0844165
0.0802456
0.0861676
0.0999873
0.0644055
0.0882589
0.0782433
0.085934
0.09762
0.0988566
0.0990333
0.0985907
0.0816541
0.100278
0.100635
0.0997358
0.0983536
0.0975019
0.0452597
0.0800522
0.0847723
0.0396268
0.0602898
0.0438688
0.0710591
0.070332
0.0535925
0.071438
0.0513644
0.0654122
0.064493
0.0760491
0.067427
0.0837741
0.0789224
0.0888269
0.09572
0.0962252
0.0957906
0.100893
0.0970761
0.0966198
0.097007
0.083549
0.0908566
0.0638144
0.0731114
0.0828423
0.0872594
0.0473553
0.042392
0.0454173
0.0528242
0.0797414
0.0846824
0.0969949
0.0947233
0.0978039
0.100477
0.0979763
0.106208
0.0520423
0.0810305
0.0781927
0.074297
0.0817765
0.0686484
0.0853635
0.0388263
0.0605652
0.0560944
0.0380645
0.0436144
0.0614512
0.0481839
0.0971443
0.0976908
0.0967795
0.0964222
0.098315
0.0998728
0.0767281
0.0570539
0.0864189
0.0791843
0.0723473
0.0885113
0.0745121
0.0466804
0.0404601
0.052262
0.0653684
0.062067
0.0417729
0.0819078
0.101982
0.100733
0.099049
0.0970023
0.101786
0.100017
0.0547775
0.0879177
0.0923123
0.083999
0.0941476
0.077314
0.0957693
0.0795226
0.0822464
0.0395597
0.0979648
0.0941631
0.0976299
0.091828
0.0778645
0.0972705
0.0835951
0.0964052
0.0979885
0.0943514
0.0963759
0.0980745
0.0513682
0.0471502
0.0878896
0.0717435
0.082045
0.0903141
0.0839657
0.0967928
0.100665
0.0939834
0.0980159
0.0981151
0.0998743
0.0980443
0.0663823
0.0915776
0.0920013
0.0875931
0.0813108
0.0921931
0.0961952
0.0948256
0.0965906
0.0947445
0.0988691
0.0952412
0.101255
0.0993472
0.0945648
0.0952588
0.0950615
0.0984249
0.0963916
0.0969647
0.0954682
0.096718
0.0973267
0.0966821
0.0965064
0.0953796
0.0961731
0.0960916
0.0960657
0.0975735
0.10126
0.0956442
0.0953198
0.0961221
0.0953537
0.0952008
0.0990906
0.101711
0.0957707
0.0954289
0.0962024
0.0956557
0.0970994
0.0971969
0.0983638
0.0953124
0.0953135
0.0956047
0.0953205
0.0950797
0.101876
0.0936491
0.0963788
0.0955965
0.0962784
0.0955224
0.0990864
0.102167
0.0947121
0.0956138
0.0956143
0.0949503
0.0628718
0.0779715
0.0645502
0.081087
0.0833399
0.0804508
0.0899427
0.0928015
0.0789774
0.0905473
0.0822725
0.0948812
0.086009
0.0400282
0.0824114
0.0878182
0.0365657
0.0582176
0.0379486
0.0364464
0.0873349
0.0952179
0.0955011
0.0536303
0.0402348
0.0813114
0.0365585
0.0850375
0.0380905
0.0578598
0.0364492
0.0453962
0.0892211
0.0788047
0.0607376
0.0849807
0.0669977
0.0411371
0.0954289
0.0873662
0.095035
0.0826711
0.0954124
0.0872538
0.0949098
0.095143
0.0864242
0.0858128
0.0918629
0.0877705
0.0921477
0.0954187
0.0543918
0.0395854
0.0505743
0.0594254
0.0232902
0.0612662
0.072192
0.0767899
0.0853894
0.0825242
0.0900763
0.0443567
0.0494989
0.0768643
0.0835413
0.0813081
0.0800023
0.0504017
0.0527124
0.081758
0.0850024
0.0791687
0.0434655
0.0795803
0.0454745
0.0835329
0.0525319
0.0403982
0.0846749
0.0783884
0.0907798
0.050275
0.0906243
0.0491742
0.0846082
0.0894762
0.0844586
0.0844939
0.0917144
0.0842066
0.0743259
0.0755454
0.0686048
0.047392
0.0757133
0.0765049
0.0696801
0.0781774
0.079882
0.0659251
0.0577688
0.0697615
0.0487629
0.0765058
0.0467692
0.0923368
0.0799551
0.092058
0.083089
0.0817215
0.0767443
0.0463978
0.044527
0.0415318
0.061283
0.0558646
0.0865859
0.0846168
0.0787715
0.0889199
0.0523696
0.0559856
0.0335784
0.0332638
0.081575
0.0943298
0.0833877
0.0536599
0.0806237
0.0606539
0.067292
0.0607204
0.034813
0.0388294
0.0488199
0.0395127
0.0420598
0.0696255
0.0882076
0.0903208
0.0667771
0.0871162
0.0516618
0.0779446
0.0427185
0.0416998
0.0606274
0.0395539
0.0611867
0.0689029
0.0947719
0.0862851
0.0811629
0.0879291
0.0784174
0.0650829
0.055166
0.0538174
0.070692
0.0752157
0.0627339
0.0670728
0.0872784
0.0816884
0.0783883
0.0860968
0.069477
0.0828297
0.0369148
0.0390935
0.0468011
0.0869236
0.0489016
0.0397569
0.0588528
0.0522005
0.0858083
0.086362
0.0868963
0.0854641
0.0828362
0.0614037
0.0290777
0.0532131
0.0589826
0.0401541
0.0605859
0.0297377
0.0388883
0.0195064
0.0710734
0.0437487
0.0499522
0.049489
0.0694134
0.0590487
0.049858
0.0855799
0.0813287
0.0714563
0.054762
0.0823423
0.0856122
0.0509041
0.0757721
0.0776654
0.0471083
0.0496969
0.0745776
0.0754682
0.0453216
0.0368295
0.0916351
0.035926
0.0925027
0.036094
0.0600582
0.0363984
0.0386783
0.057241
0.0650003
0.0375582
0.0588953
0.0382305
0.0317377
0.0369097
0.03601
0.0902375
0.0893827
0.0603726
0.0364421
0.0365377
0.0361171
0.0765096
0.0609697
0.0862502
0.0395688
0.0779446
0.0528906
0.0332778
0.0583384
0.0386058
0.0607272
0.038599
0.0642112
0.0427873
0.0958899
0.0862608
0.0922708
0.087009
0.0957201
0.0850714
0.0951354
0.0948085
0.083213
0.0952388
0.0759324
0.0954971
0.0848635
0.0945709
0.0947905
0.0870405
0.0755425
0.0954737
0.0833292
0.0951332
0.0941598
0.057472
0.0588021
0.0452811
0.0394841
0.0457113
0.0571156
0.063306
0.046695
0.040914
0.0605712
0.0604556
0.0823945
0.0826032
0.0828761
0.0832459
0.0433173
0.0474803
0.0630094
0.0764681
0.0721077
0.0603679
0.0336339
0.0751013
0.0807528
0.0816001
0.0892104
0.0671818
0.0749653
0.0749953
0.0894162
0.0923263
0.0973365
0.0793518
0.0854797
0.0838796
0.0774277
0.0533784
0.0741118
0.0735522
0.0887502
0.0982725
0.092358
0.0827971
0.0970042
0.0864156
0.0870377
0.0822459
0.0889316
0.0836452
0.0919625
0.0891516
0.0850466
0.087376
0.076052
0.083328
0.0886567
0.0829825
0.0887675
0.0797046
0.0774275
0.0957479
0.0888145
0.0775281
0.0878251
0.0726656
0.0806819
0.0909155
0.0671061
0.0874577
0.077496
0.0852154
0.0714558
0.0822894
0.0824826
0.0773629
0.0780752
0.0842801
0.051022
0.0466969
0.0546848
0.0762085
0.0724989
0.0776446
0.0874518
0.0747848
0.0800192
0.0813404
0.0458796
0.0375005
0.0448186
0.0571259
0.0600689
0.0735828
0.0721184
0.0796201
0.0922749
0.0735172
0.0764028
0.0832472
0.0727609
0.0889379
0.0937753
0.0854642
0.0815847
0.0775583
0.0849436
0.0732725
0.0766699
0.0793233
0.087642
0.0778794
0.0776895
0.0868133
0.0731151
0.0676927
0.0714189
0.0784132
0.0431617
0.0759743
0.0850193
0.0909434
0.0544087
0.0702225
0.0705494
0.0407167
0.0563174
0.0596655
0.0385603
0.0448941
0.0479592
0.0729813
0.0806352
0.0792443
0.0960137
0.0745056
0.0784002
0.0858021
0.0750068
0.0812981
0.0809689
0.0854631
0.0845169
0.0742591
0.0868995
0.079172
0.0782627
0.0591142
0.0783033
0.0844829
0.0771976
0.0644679
0.0574261
0.0443593
0.0398683
0.0417836
0.0467776
0.0474965
0.0445503
0.0760841
0.0905763
0.0921083
0.0973463
0.0801075
0.0876219
0.0828377
0.079058
0.0712028
0.079682
0.0872973
0.075616
0.0632845
0.0851045
0.0939353
0.0615328
0.0404513
0.0803527
0.0510564
0.0856428
0.0816514
0.0753735
0.0684522
0.0720028
0.0793713
0.0703032
0.071215
0.0494186
0.0768788
0.0477306
0.0514086
0.0751481
0.0700804
0.079245
0.0509485
0.0925922
0.0832679
0.0941669
0.0978944
0.0879261
0.0910585
0.0956682
0.0933244
0.0877405
0.0993555
0.0964695
0.0904898
0.0948327
0.0963957
0.0886509
0.0913409
0.0941362
0.0997195
0.084442
0.090027
0.0992926
0.079727
0.0942451
0.0865834
0.0844879
0.0456427
0.0865329
0.0648946
0.0830777
0.0791445
0.0807595
0.0514496
0.0498397
0.0593591
0.0441758
0.0875266
0.0719811
0.0549618
0.0833637
0.0356359
0.0809286
0.0856485
0.091694
0.0894276
0.0930167
0.0834016
0.0853362
0.0937307
0.0902277
0.0921023
0.0967443
0.0973603
0.0894122
0.0787914
0.0946876
0.0515797
0.0498435
0.0596893
0.0404781
0.0756947
0.062397
0.0791759
0.0803426
0.0882371
0.0869266
0.0934882
0.0964191
0.0945408
0.0902196
0.0797494
0.0958479
0.0327477
0.0550036
0.0758016
0.0537898
0.0730314
0.0703569
0.0429938
0.0473473
0.0510592
0.046379
0.0676323
0.0499858
0.0607679
0.0691596
0.0716868
0.0695753
0.0699033
0.0694752
0.0696968
0.0725505
0.0778783
0.0602368
0.0714109
0.0744303
0.0703539
0.0709123
0.0693368
0.0686396
0.0804767
0.0772748
0.0515687
0.0480971
0.0818441
0.0797503
0.0813245
0.0795992
0.0815533
0.0791262
0.0811981
0.0480955
0.0723863
0.0465608
0.0805479
0.0808745
0.080878
0.0810794
0.0811129
0.0821058
0.0774598
0.072284
0.0629521
0.0593159
0.0712019
0.0768758
0.0639077
0.0813616
0.0883082
0.0656086
0.0607554
0.0779206
0.091801
0.0635762
0.0818567
0.0604734
0.0878224
0.0620586
0.0897967
0.0815921
0.064754
0.10001
0.0824044
0.0764395
0.0841025
0.0781267
0.0791665
0.0867734
0.0701399
0.0670717
0.0669904
0.0661015
0.0712312
0.0797785
0.0800729
0.0878287
0.0747627
0.0801235
0.0926515
0.0950834
0.0951907
0.0920305
0.0674082
0.0815081
0.0794818
0.0895436
0.0810777
0.0805973
0.0900611
0.0866565
0.0900852
0.0864494
0.06243
0.0816988
0.0698613
0.0866803
0.0887002
0.0672504
0.0716556
0.0736813
0.088996
0.0864912
0.0799568
0.0704297
0.0506548
0.0673204
0.0818132
0.0827517
0.0720361
0.0736562
0.0441769
0.050548
0.0561336
0.0671185
0.0710226
0.0562188
0.0439551
0.0552031
0.0681539
0.085822
0.0823985
0.0728806
0.0987584
0.088253
0.0633551
0.0625891
0.0805546
0.0796894
0.0824297
0.0879856
0.051744
0.0509899
0.0809728
0.0870539
0.0873822
0.0795676
0.0534281
0.0491907
0.0703124
0.0512587
0.0762992
0.0742365
0.073898
0.0865464
0.0875242
0.0659327
0.0555093
0.0750193
0.0708753
0.0858111
0.0519709
0.0723157
0.0824042
0.0845563
0.076686
0.0547429
0.0711302
0.0735316
0.0742182
0.078294
0.070978
0.0965505
0.0842314
0.0889258
0.0857497
0.0886626
0.0742725
0.080383
0.0707385
0.0814226
0.0725413
0.0873747
0.0866401
0.0767758
0.0951973
0.0553132
0.0946596
0.0879357
0.0608365
0.0800153
0.077145
0.0945842
0.06529
0.0859656
0.0815698
0.093842
0.0990931
0.0794189
0.0878464
0.0619314
0.0872369
0.0844496
0.0635135
0.0888712
0.0802921
0.034057
0.0382529
0.0384478
0.0451742
0.0725361
0.079979
0.0899429
0.0734732
0.0782417
0.0674429
0.0772974
0.0558494
0.0899344
0.0705506
0.0783326
0.0563724
0.0626275
0.0406721
0.0738345
0.070413
0.0667514
0.049717
0.0381131
0.0522263
0.0638693
0.0605102
0.0662059
0.089255
0.0732618
0.0602967
0.0786845
0.0558806
0.0713841
0.0697025
0.0635739
0.0644105
0.0719676
0.0753803
0.0606126
0.0669213
0.0721847
0.0563324
0.0457333
0.0563511
0.0695044
0.0559381
0.0756391
0.0642909
0.0387788
0.0666484
0.0753787
0.0644322
0.0640899
0.0852551
0.0940194
0.078859
0.0607512
0.0829112
0.0690134
0.0723721
0.075706
0.0887812
0.0776362
0.0595349
0.0519298
0.0602466
0.0717999
0.0582447
0.0708877
0.0913234
0.0734145
0.102486
0.0781095
0.0579058
0.0650288
0.0641764
0.0802295
0.0737774
0.0770386
0.0770523
0.0704688
0.0579714
0.0737569
0.0725013
0.0821131
0.0816436
0.0706597
0.0673253
0.0722798
0.0819915
0.0813928
0.0790714
0.087726
0.089838
0.0805483
0.0717342
0.0826335
0.0903256
0.0495838
0.0543575
0.143258
0.0446772
0.0465318
0.0707236
0.0829315
0.0458598
0.0828969
0.0482223
0.0475564
0.0474641
0.0515877
0.0492341
0.0778546
0.0806702
0.0823342
0.0705382
0.0801264
0.0795372
0.0886423
0.0802476
0.0786938
0.0804263
0.0519475
0.0444052
0.0790653
0.0805393
0.0821049
0.0779611
0.0705393
0.0450835
0.0686461
0.0811145
0.0789917
0.084221
0.0692619
0.0807029
0.0829056
0.0881133
0.0957988
0.0844729
0.0878095
0.0901177
0.0996349
0.0449986
0.0506246
0.0752207
0.0793452
0.0506801
0.0588446
0.0742173
0.0401518
0.0516687
0.0615195
0.0459047
0.0438854
0.0724003
0.0856868
0.0472048
0.0754834
0.0392879
0.0464797
0.0635331
0.0631801
0.0457773
0.0454391
0.081419
0.0871762
0.0587577
0.0776703
0.0556381
0.0629684
0.0584519
0.0736782
0.0857171
0.0769871
0.0734662
0.0596947
0.0578685
0.0592032
0.0844115
0.0901073
0.0739014
0.0587947
0.085385
0.0893029
0.0869711
0.0868828
0.0729801
0.0891084
0.0833469
0.0885073
0.071828
0.0869762
0.0988538
0.0921367
0.0826494
0.0829531
0.0879625
0.0934693
0.0935189
0.0856459
0.0839589
0.0935443
0.0754706
0.0477551
0.0475434
0.0705359
0.0678089
0.0419663
0.0665654
0.0770816
0.0500926
0.0501992
0.0735504
0.0694262
0.0466499
0.0771065
0.0791061
0.0516451
0.0747748
0.0768033
0.0671067
0.0722758
0.0840297
0.0780396
0.0826933
0.0494715
0.0508904
0.0464556
0.0732758
0.0773273
0.0818487
0.0916164
0.0815661
0.0850169
0.0779463
0.0841018
0.0892936
0.0426896
0.0913391
0.0885349
0.0780261
0.0524429
0.0806902
0.0808879
0.0530628
0.092606
0.0934734
0.0857157
0.0542349
0.0768292
0.0948137
0.0777844
0.0936597
0.0871067
0.0939744
0.0865247
0.0921101
0.0921167
0.0475106
0.0642541
0.0809162
0.0720712
0.0606536
0.051848
0.0709983
0.0453561
0.0479067
0.0387414
0.0428734
0.0635818
0.0600017
0.0684596
0.056461
0.051214
0.0435472
0.0452841
0.072224
0.0528162
0.0669188
0.0381042
0.0571808
0.0704341
0.0439859
0.0763521
0.0379556
0.064934
0.0489829
0.0730304
0.0668836
0.0786158
0.0595358
0.0672041
0.0361635
0.0609297
0.0425841
0.0540859
0.0727252
0.0369907
0.0542926
0.0569016
0.0792381
0.0813761
0.07524
0.0859442
0.0869773
0.0888697
0.0520034
0.0801121
0.0956349
0.0805173
0.0924807
0.0809521
0.0898046
0.0674455
0.0837603
0.0908724
0.0867949
0.0838917
0.0959098
0.0960433
0.0448688
0.0729264
0.0756494
0.0436464
0.0479914
0.0579451
0.0420503
0.0378473
0.0397197
0.0540574
0.0337681
0.0415727
0.0353391
0.0559692
0.0452897
0.0547949
0.0429043
0.0327303
0.0431063
0.0574319
0.0649472
0.0467603
0.0512332
0.038129
0.0353633
0.0639701
0.0492213
0.0417778
0.0401762
0.0313228
0.0565875
0.0350148
0.0415386
0.0572847
0.0411859
0.0478046
0.0635878
0.0485051
0.0577511
0.0395668
0.0508041
0.0665672
0.0460179
0.0428904
0.0252057
0.0436926
0.0740069
0.0436537
0.0744483
0.0419488
0.0445899
0.0586813
0.0421812
0.073653
0.0672417
0.0446548
0.0381111
0.0549344
0.0373893
0.0380279
0.0399905
0.0426123
0.0537405
0.0762138
0.0684905
0.047475
0.0396568
0.061988
0.0162761
0.0446066
0.0414969
0.0420526
0.0317139
0.0429636
0.0778438
0.0782174
0.0460422
0.0420977
0.0752742
0.0360655
0.0459308
0.042859
0.054689
0.0413417
0.0440992
0.0529705
0.083165
0.0758896
0.052769
0.0388436
0.0754998
0.0459391
0.0587641
0.0482574
0.0588102
0.0433808
0.0311701
0.0361356
0.0442564
0.0395324
0.0621715
0.0698662
0.0638566
0.0511265
0.0536303
0.0435841
0.0440435
0.06899
0.0495363
0.0503858
0.0561957
0.0433621
0.0691884
0.0475593
0.070053
0.0393368
0.0739756
0.0554279
0.071768
0.0431354
0.0748935
0.0474947
0.0771
0.0729788
0.0404897
0.0705167
0.0649131
0.0877784
0.0737155
0.0867532
0.0731805
0.0571297
0.0696133
0.0449842
0.0501711
0.0518184
0.0701638
0.0624679
0.0699618
0.0638697
0.054755
0.0657322
0.0755339
0.0418152
0.0625295
0.0365666
0.0716645
0.0405129
0.0672169
0.0686065
0.0619121
0.0529712
0.0717728
0.0706243
0.0468928
0.0679982
0.0171761
0.039928
0.0586982
0.0314293
0.070796
0.0712785
0.0742384
0.00689978
0.0256014
0.057313
0.0693403
0.0697077
0.0212273
0.0621116
0.0320765
0.0551762
0.0692915
0.0705648
0.0670829
0.070782
0.0722402
0.0767584
0.0716169
0.0754489
0.0733122
0.0806292
0.0710127
0.0841002
0.072472
0.067146
0.0713954
0.0778234
0.0720372
0.0720242
0.0695025
0.0739414
0.0784513
0.080335
0.0832812
0.0774091
0.0773928
0.0775827
0.0793657
0.0757612
0.078661
0.0744281
0.0819235
0.0758678
0.0769116
0.0744409
0.0757971
0.0757568
0.0516353
0.0180644
0.0107647
0.046504
0.0227816
0.0172551
0.0411385
0.052729
0.0628271
0.0206561
0.0477472
0.0498478
0.0089281
0.0608711
0.0274088
0.0498879
0.0421416
0.0607826
0.0409701
0.0692852
0.0451968
0.0471896