/*--------------------------------*- C++ -*----------------------------------*\
  =========                 |
  \\      /  F ield         | OpenFOAM: The Open Source CFD Toolbox
   \\    /   O peration     | Website:  https://openfoam.org
    \\  /    A nd           | Version:  10
     \\/     M anipulation  |
\*---------------------------------------------------------------------------*/
FoamFile
{
    format      ascii;
    class       volScalarField;
    location    "0.1";
    object      nut;
}
// * * * * * * * * * * * * * * * * * * * * * * * * * * * * * * * * * * * * * //

dimensions      [0 2 -1 0 0 0 0];

internalField   nonuniform List<scalar> 
114940
(
0.00862534
0.00961803
0.0085945
0.00953832
0.00934607
0.00970848
0.00961396
0.0098055
0.00980698
0.00969476
0.00981592
0.00986857
0.00983176
0.00969054
0.00964676
0.00962828
0.00989078
0.00991183
0.00987423
0.00985706
0.00957271
0.00981349
0.00958386
0.0099001
0.00984651
0.00985228
0.00957396
0.00976264
0.00981165
0.00968514
0.00970827
0.00970933
0.00971719
0.00973444
0.00993922
0.00728658
0.00679311
0.0090467
0.00966174
0.00991861
0.00767513
0.00795381
0.0082514
0.00945021
0.0097344
0.00715793
0.0090291
0.00605907
0.00800882
0.00922585
0.00735344
0.00928221
0.0094369
0.0079486
0.00585785
0.00789313
0.00826352
0.00607308
0.00767511
0.00949434
0.00911612
0.00828062
0.00617649
0.00811836
0.00823575
0.00627606
0.00833419
0.0087589
0.00915895
0.00504847
0.00804475
0.00933841
0.00799284
0.00620872
0.00678574
0.00573056
0.00806737
0.00928731
0.00934225
0.00937457
0.0094017
0.0095495
0.00947598
0.00964572
0.00938683
0.00984996
0.00983457
0.00965158
0.00972003
0.00979573
0.00953683
0.00977612
0.00973398
0.00955709
0.00976258
0.00951533
0.00979295
0.00991646
0.00350466
0.006757
0.00860688
0.00940849
0.0096945
0.00313075
0.00323861
0.00804707
0.00588833
0.00801786
0.0092019
0.00325799
0.00312843
0.00830961
0.00639083
0.00551752
0.00786757
0.00768001
0.00781667
0.00880218
0.00846548
0.00637979
0.0053878
0.00821975
0.00577095
0.00630459
0.00828502
0.00901763
0.00900486
0.00866231
0.00642749
0.00522521
0.00867304
0.00881734
0.00604867
0.00593252
0.00827059
0.00885662
0.00881258
0.00779245
0.00597146
0.00791665
0.00877048
0.00616796
0.00602929
0.00803002
0.00653516
0.00639389
0.00737045
0.00577477
0.00833463
0.0083937
0.00596563
0.007038
0.00781116
0.00673201
0.00845572
0.00681179
0.00847
0.00941186
0.00821844
0.00596654
0.00712024
0.00791653
0.0055884
0.00811514
0.00932297
0.00810308
0.00619326
0.00570795
0.00793453
0.00925457
0.00960661
0.00970247
0.00940951
0.0096834
0.00980563
0.00221458
0.00698968
0.00577001
0.00821883
0.00931027
0.000229043
0.00176219
0.00335219
0.00487033
0.00536037
0.00809195
0.00130986
0.00146052
0.00164139
0.00254928
0.00618987
0.00608416
0.00533868
0.00841965
0.00260592
0.00322336
0.0013395
0.00149599
0.00243359
0.00330272
0.00525953
0.00512431
0.00840724
0.0071764
0.00573055
0.00270493
0.00146189
0.00138049
0.0025283
0.00576279
0.00453999
0.00808269
0.00946623
0.00582709
0.00585255
0.00275598
0.00143427
0.00130932
0.00285356
0.0053048
0.00571562
0.00837053
0.00894148
0.00574486
0.00564274
0.00237682
0.00318883
0.00296956
0.00279968
0.00582291
0.00471931
0.00871283
0.00613878
0.00636213
0.00557354
0.00300497
0.00273588
0.00571463
0.00466265
0.00859951
0.00607901
0.00594785
0.00540802
0.00248162
0.00631479
0.00449532
0.00822535
0.00610871
0.00665341
0.00760895
0.00563782
0.00779835
0.00958127
0.0098422
0.00983614
0.00962432
0.00954215
0.0096519
0.00979177
0.00140901
0.008104
0.0051486
0.00821368
0.00930875
0.00213438
0.00301489
0.00629204
0.00494451
0.00808878
0.00129195
0.00275596
0.00637505
0.00528917
0.00843859
0.00294502
0.00312992
0.000116688
0.00248437
0.00270498
0.0064766
0.00482489
0.00848256
0.00749895
0.00578909
0.00358057
0.000971321
0.000281992
0.00132954
0.00269316
0.00492348
0.00808675
0.00936805
0.00653843
0.0060509
0.00323061
7.56196e-05
0.000162125
0.000981063
0.00262232
0.00584042
0.00847356
0.00893518
0.00616988
0.00566475
0.00360002
0.00112489
2.34914e-05
0.00185667
0.00494038
0.00447781
0.00882204
0.00576655
0.00602232
0.00274463
0.0011097
0.000240167
0.00225186
0.00452236
0.0085348
0.0053033
0.0054571
0.00276504
0.00339212
0.0055304
0.00455026
0.00824285
0.00552986
0.00697129
0.00862242
0.00531045
0.00784104
0.00957512
0.0098568
0.00984691
0.00962277
0.00962529
0.00986767
0.00992882
0.00117154
0.00663622
0.00853682
0.00938859
0.0096901
0.00111407
0.0061273
0.00542413
0.00809257
0.00916888
0.000776862
0.00127173
0.00320488
0.00259966
0.00650117
0.00501892
0.00781185
0.00959226
0.00241433
0.00244994
0.00327863
0.00415426
0.00257959
0.00686141
0.00550952
0.0082841
0.00896318
0.00662711
0.0065586
0.00487714
0.00369673
0.00307586
0.00259325
0.00665087
0.00498719
0.00810409
0.00897772
0.00567711
0.00508612
0.00267465
0.00363403
0.00296762
0.00271389
0.00624367
0.00573031
0.00872457
0.00854507
0.00543228
0.00615589
0.00507411
0.00316441
0.00319125
0.00567536
0.00518875
0.0082151
0.00947951
0.00858953
0.00510693
0.00501119
0.00327031
0.00260233
0.00534264
0.00380868
0.0096241
0.00826274
0.00521899
0.00675335
0.00721613
0.00550913
0.00791189
0.00803228
0.00548089
0.00623802
0.00784918
0.00976665
0.0096064
0.0096747
0.00940744
0.00456027
0.00663018
0.00653769
0.00937952
0.00218799
0.00658789
0.00830869
0.00831156
0.00200971
0.00643785
0.00798932
0.00796683
0.00598018
0.00805589
0.00920963
0.00983223
0.00755754
0.00771373
0.00693507
0.00744245
0.00922615
0.00801744
0.00542629
0.00783023
0.00959585
0.00967634
0.00948486
0.00835231
0.00638434
0.00839646
0.00873088
0.00766619
0.00624886
0.00828605
0.00892387
0.00847878
0.00569261
0.00767813
0.00818983
0.00907388
0.00798161
0.00501132
0.00819782
0.00957523
0.00798504
0.00567399
0.0064052
0.00829108
0.00826358
0.0052576
0.00766038
0.00906551
0.00955582
0.00943859
0.00810292
0.00544934
0.00747697
0.00798313
0.00468315
0.0078973
0.00804147
0.00559273
0.00575504
0.00768225
0.00924818
0.00950105
0.00863388
0.00554056
0.0085961
0.00941939
0.00579966
0.00827661
0.00949315
0.00980477
0.00712302
0.00605365
0.00812216
0.00940693
0.00973592
0.00956895
0.00977399
0.00950302
0.00940063
0.0095969
0.00982469
0.00986516
0.00981051
0.00973648
0.00967094
0.00987951
0.00985962
0.00975103
0.0099073
0.0098443
0.00985116
0.00949512
0.00965604
0.00967153
0.00957891
0.00989115
0.00982485
0.00985409
0.00962438
0.00963823
0.00940328
0.00968646
0.00960349
0.00985392
0.00968377
0.00975448
0.00949367
0.00966331
0.00974275
0.00972863
0.00918157
0.00947957
0.00974266
0.00990073
0.00958136
0.0098865
0.00963714
0.00979678
0.00975279
0.00964116
0.00980497
0.00986868
0.00282542
0.0028261
0.00254944
0.00222958
0.00158262
0.00259584
0.00364879
0.0025962
0.000470368
0.00255297
0.00138729
0.00112949
0.00258326
0.0034365
0.00216915
0.0013132
0.00241648
0.00318641
0.00286219
0.00503922
0.0032108
0.00470083
0.00400612
0.00263106
0.00358366
0.00296462
0.00144889
0.00150289
0.00629922
0.00143561
0.00131235
0.00137124
0.00234897
0.00371689
0.00242621
0.00403705
0.00147238
0.00649125
0.00286283
0.0065172
5.2606e-05
0.00184044
0.00136434
0.0016689
0.00148914
0.00189802
0.00292824
0.00139579
0.00166153
0.00229525
0.0034222
0.00125723
0.00150646
0.00247424
0.00228247
7.0478e-05
0.00403331
0.00124282
0.00129093
0.00279502
0.00125429
0.00131633
3.60506e-05
0.00113946
0.00163797
0.00119315
0.000988984
0.00324199
0.00156062
0.00240624
0.00145946
0.00353027
0.00124278
0.00111611
0.00326183
0.00251325
0.00308442
0.000128687
0.00289223
0.00309821
0.00116151
0.00340421
0.00109989
3.8762e-05
0.00151768
0.000551277
0.00151236
0.00151096
0.00104474
0.00130184
0.00051174
0.000231104
0.00108011
0.00152942
0.00101778
0.000218306
0.00127581
0.000146391
0.0027733
0.00271349
0.00289095
0.000146053
0.000954009
0.000854874
0.000214134
0.00133893
0.00060078
0.00140497
0.0071497
0.0013278
0.0068525
0.00134117
0.00228847
0.00059297
0.00108103
0.00695982
0.00246396
0.00709501
0.00126941
0.0057775
0.00152653
0.00428689
4.06269e-05
0.000820871
0.00191184
0.0010264
0.00092202
0.00127602
0.00335996
0.0011841
0.000225877
0.000854149
0.00155654
0.0023916
0.00135831
0.000100862
0.000905149
0.0012207
0.0038156
0.00314841
0.000911091
3.34832e-05
0.00137117
0.00277406
0.0031325
0.00107463
0.00122292
0.000642725
0.000267426
0.00138146
0.00267352
0.00186438
0.00110564
0.00115378
5.24665e-05
0.000136719
0.00363354
0.00297711
0.00148888
0.00121631
0.000636993
0.000925091
5.50021e-05
0.00302941
0.00311467
0.00469394
0.00348659
0.000606771
0.00296165
0.00311943
0.000617812
0.000952822
0.00410814
0.00440729
0.00276118
0.000465453
0.00098448
0.0034399
0.00368451
0.00283395
0.00638648
0.00893106
0.00690538
0.00343735
0.00261833
0.00261643
0.00266995
0.00642269
0.00909927
0.00659995
0.00450846
0.0023365
0.00439095
0.00223987
0.00624951
0.00900906
0.00633502
0.00397524
0.00215308
0.0039228
0.00217321
0.000599118
0.00081319
0.000789361
0.00100158
0.00212218
0.00129103
0.00106022
0.0014364
0.000806998
0.00142247
0.00144649
0.00148977
0.000359906
0.000524855
0.00134678
0.0014635
0.00026729
0.00142686
0.000547763
0.000424407
0.00239084
0.00135237
0.00187493
0.00277154
0.00253531
0.000250309
0.00163251
0.00105226
0.00349091
0.00232497
0.00292845
0.00098521
0.00342424
0.00364782
0.00113402
0.00294872
0.00113348
0.000730916
0.000204361
0.00353914
5.22328e-05
0.00297535
0.00129321
0.00267705
0.00145953
0.00299438
0.000164067
0.00127679
0.000997199
0.00271151
0.00241936
0.000122183
0.00195408
0.00103547
0.00240067
0.00334077
0.00292923
0.00119919
0.00300566
0.000206168
0.00148555
0.00246515
0.00347175
0.00238869
0.00103582
0.000157406
0.00287814
0.00114178
0.00575067
0.00450545
0.00150418
0.00100139
0.00563255
0.00521756
0.00171381
0.00387485
0.00110945
0.00128551
0.00450779
0.00151632
0.00360357
0.000832994
0.000261558
0.001714
0.00168862
0.000596828
0.0023629
0.000843426
8.0421e-05
0.000895894
0.00132932
0.000371269
0.000265584
0.000788471
0.000640036
0.000770852
0.00311869
0.00187072
0.00267465
0.00270564
0.00138786
0.00301491
0.000180714
0.00276695
0.00247884
0.00281437
0.00288224
0.00516682
0.00213032
0.00157061
0.000784273
0.00310228
0.00112525
0.00236814
0.00203604
0.000613445
0.000546897
3.44833e-05
0.000497119
9.09377e-05
0.00054638
0.00074524
0.00277466
0.000337046
0.00147474
0.00290879
0.00260481
0.00295677
0.0030497
0.000258404
0.00173564
0.000145611
0.00436913
0.00175542
0.00302928
0.000994498
0.000686298
0.000735153
0.000214063
0.000721402
0.00081717
0.000873816
0.00287601
0.000170087
0.00106717
0.00277617
0.00257885
0.00291637
0.00286178
0.000138707
0.00167085
0.00114652
0.00159115
0.00117996
0.00259668
0.00316674
0.00201271
0.000435088
9.93966e-05
0.000527427
6.18136e-05
0.00152102
0.00145154
0.00259794
5.32864e-05
0.00161859
0.00265058
0.00258737
0.00465388
0.00294673
4.62542e-05
0.00306574
0.00110149
0.00419179
0.00376478
0.00223672
0.00311027
0.00115874
0.00648205
0.00301041
0.00317699
0.00126929
0.000890467
0.000844747
0.0019209
0.000858996
0.00113078
0.00129169
0.00183751
0.00313789
0.00260162
0.00363601
0.00243397
0.0011178
0.00294269
0.00266339
0.00248258
0.00261738
0.00311371
0.00213623
0.00283918
0.00435137
0.00221843
0.00907229
0.00642035
0.00903858
0.00649603
0.00283017
0.00414851
0.00211885
0.00896004
0.00623054
0.00899392
0.0062779
0.00340038
0.00160673
0.000794313
0.00134635
0.000886061
0.00164878
0.00064328
0.000828425
0.00163487
0.00132021
0.0010468
0.000847687
0.00104982
0.00143282
0.00114717
0.000752191
0.00141747
0.00069647
0.000535309
0.00150198
0.000830307
0.00156543
0.000630171
0.00123439
0.000191271
0.00105374
0.000933685
0.00118076
0.00163484
0.00124427
0.00139658
5.53628e-05
0.000936363
0.000787553
0.00184401
0.000887384
0.00087545
0.00115333
0.00165173
0.000896468
3.4344e-05
0.000852791
0.000821788
5.37892e-05
0.000939026
0.000244239
0.000945621
0.00156771
0.00147368
0.00188666
0.00173575
0.00180133
0.00187935
0.000211328
0.00130387
0.000169575
0.00020224
0.000204196
0.000135124
0.000178495
0.000974372
0.000184884
0.000288822
0.000214741
0.000299332
0.00126272
0.00124093
0.00102286
0.000482135
0.00159218
0.00176596
0.00166494
0.00138998
0.00130173
0.000551525
0.00100826
0.00174771
0.000981857
0.00142167
0.00160191
0.00113011
0.00131485
0.0011415
0.00146844
0.000211989
0.00118793
0.000891528
0.000802938
0.000790914
0.00127368
0.00102147
0.00114558
0.000972804
0.00126027
0.000139585
0.00093122
0.00100729
9.28327e-05
0.00167196
0.00152392
0.00017865
0.0015456
0.000149932
0.00111965
0.00166519
0.000222721
0.00172946
0.000433124
0.00014282
0.000228262
0.000249859
0.00087513
0.000309646
0.000410031
0.000296901
0.000386743
4.79916e-05
3.63875e-05
0.00032413
0.00033514
0.00124012
8.6949e-05
0.000475411
0.000486844
0.000447519
0.000431651
0.00133383
0.00190556
0.000227096
0.00121858
0.0015104
0.00125453
0.00155027
0.00196947
0.000525323
0.0016148
0.00113711
0.000219007
0.00159906
5.95876e-05
0.00028798
0.00048373
0.000146893
0.00150516
0.00145614
0.000286252
0.000404511
3.27426e-05
0.000180333
0.000522786
0.00062134
0.00127244
4.6419e-05
0.00106381
0.000307724
0.000505461
0.00141968
0.00153438
0.000652151
0.00149379
0.000320992
0.00042973
0.000527069
0.00102319
0.00154572
0.000761759
0.00153364
0.000746326
0.000435433
0.000286359
7.17346e-05
0.000414017
0.000383721
2.64208e-05
0.000317205
0.00100021
0.000519903
0.000743592
0.000462138
0.000632283
0.000293523
0.000543752
0.000120576
0.00016027
0.000321444
0.00058187
0.000616902
0.000525818
0.000155148
0.000238751
0.00142563
0.00158281
0.00035467
0.00147211
0.000479423
0.000173111
0.000231988
0.000989186
0.00151637
0.000565986
0.00147155
0.000393032
0.000173581
6.789e-05
0.000597962
0.000609515
7.97984e-05
0.000693668
0.000313686
6.72082e-05
0.00119124
0.000711783
0.000238295
0.000813562
0.000262291
6.69346e-05
0.000159306
8.68259e-05
0.00030964
6.48612e-05
0.000341442
0.000227546
0.000242238
0.00138705
0.000337384
0.000642706
0.000350772
0.000927291
0.000665558
0.000277389
0.00136744
0.00147161
0.000373143
0.000349884
0.000989296
0.00144493
0.000273092
0.00162638
0.0011454
0.000334441
0.000328819
0.00111842
0.00172315
0.000267397
0.000786004
0.000856726
0.000677707
0.000728348
0.000692355
0.00079108
0.000740467
0.000693998
0.00498908
0.00107767
0.00430328
0.000997878
0.00504479
0.00116649
0.00496757
0.00166299
0.0012558
0.00511093
0.00103062
0.00165121
0.00541247
0.00126795
0.00515501
0.00531837
0.000967235
0.000848093
0.000505147
0.00114024
0.00109966
0.000578963
0.000804055
0.000682912
0.000500447
0.000100553
0.00110118
0.000697246
0.00038566
0.000591398
4.71393e-05
0.000415992
0.000477891
0.000331344
0.000169606
0.00166791
0.00196813
0.000101983
0.000686828
0.000213222
0.000146811
0.000951753
0.00188904
0.000970078
0.000129439
0.000694865
0.00019481
0.00154151
0.000283104
0.001095
0.00173975
0.000775639
3.91256e-05
5.30243e-05
0.0011173
0.000455794
0.000818267
0.000848
0.000355453
0.00105851
6.44506e-05
0.00183451
0.000984771
0.00073427
0.000591057
0.000784923
0.000485812
0.0009618
0.000781535
2.64732e-05
0.000647386
0.00120185
0.000811699
0.001175
0.00211375
0.000837384
0.00129635
0.000955458
0.00208538
0.000921843
0.00185925
0.00149047
0.00114157
0.000393014
0.00172065
0.0010626
0.000866611
0.000361309
0.00038516
0.000405859
0.000481539
0.000781365
0.000651347
7.848e-05
0.000154416
0.000888215
8.36513e-05
0.000714786
0.00087238
0.000612881
0.000663624
0.000161978
0.000719628
0.000100591
0.000771227
0.000753177
0.000793258
0.00123653
0.00158717
0.00116801
0.000781307
0.00106967
0.00151409
0.00060711
0.000207487
0.000681117
0.000866653
0.000196687
0.000616823
0.000275055
0.00036542
0.000563824
0.000216531
0.000703683
0.000677772
0.00140778
0.00146653
0.00115589
0.00037183
0.00131706
0.00210524
0.000114988
0.000143628
0.00126079
6.25096e-05
0.00145835
0.00236158
0.00206087
0.000208543
0.000153509
0.0015903
6.07691e-05
0.00119567
0.00224941
0.000681757
0.000986348
0.000694193
0.00127546
0.00154261
0.000954278
0.00139395
0.000700062
0.000797209
0.000757501
0.000876596
0.000923723
0.0015915
0.00112847
0.00141096
0.00170514
0.000333502
0.00108842
0.000882743
0.00134732
0.00178754
0.00021068
0.00102629
0.000854678
0.00125888
0.00198372
0.000709181
0.00135697
0.00139776
0.00153987
0.000352565
0.000728855
0.00104876
0.00110579
0.0016303
0.00543494
0.00347496
0.0055487
0.00453966
0.00320693
0.00129559
0.00297052
0.00232787
0.00425247
0.0039359
0.00148853
0.00278476
0.00265251
0.00645777
0.00807767
0.00666163
0.00350258
0.00275662
0.00465755
0.00322886
0.00586648
0.00884059
0.00560917
0.00259456
0.00364282
0.00394324
0.00261478
0.00663968
0.0088957
0.00658935
0.00422192
0.00235194
0.00256062
0.00235163
0.00600208
0.00887371
0.00624602
0.00254973
0.00256048
0.0034827
0.00328658
0.0062518
0.00854411
0.00606774
0.00368579
0.00212183
0.00245694
0.00241114
0.00581768
0.00860247
0.00564977
0.00368398
0.00289832
0.00263149
0.00378649
0.00032785
0.000532454
0.000549209
0.000779794
0.00444177
0.00290062
0.00272569
0.00345449
0.00420726
0.00303224
0.00315179
0.00260326
0.00125325
0.00430753
0.00130764
0.00309499
0.00153913
0.00249392
0.000598929
0.0015076
0.0014667
0.000229993
0.00146486
5.9943e-05
0.00113884
0.00417728
0.00253811
0.00255308
0.00285824
0.00421134
0.00294766
0.00300588
0.00154295
0.000689115
0.000438435
0.000849513
0.00184731
0.00147421
0.00106565
0.000245835
0.00139194
0.00142912
0.000779899
0.0014126
0.000903643
0.000603646
0.00109923
0.00348065
0.00239635
0.00303237
0.000121301
0.00332582
0.0027132
0.00156114
0.000439953
0.000183335
0.000677243
0.00142537
0.00143372
0.00083663
0.00129138
0.00145613
0.00143002
0.000595938
0.00157082
0.00111944
0.000963007
0.00247174
0.00744285
0.00433498
0.00395068
0.00116403
0.00589665
0.00218178
0.00234441
0.00325184
0.00236448
0.000147787
0.0010085
0.001049
0.000210374
0.000600511
3.59087e-05
0.000846745
0.000820415
0.000432601
0.000647151
0.00016992
0.000502044
0.000488096
0.000774819
0.000445126
0.00138515
0.000904475
0.000441297
0.00229794
0.00865443
0.00584979
0.00308167
0.0027148
0.00846594
0.00605079
0.00137855
0.00143848
0.000394494
0.000899884
0.0014669
0.00108053
0.000241963
0.000227528
0.000253165
0.000370999
8.275e-05
0.00123201
0.0034378
0.00288994
0.00307383
0.00365305
0.003593
0.00256153
6.59019e-05
0.00105285
0.000892023
0.000912585
0.00127938
0.000738828
0.00114146
0.000173249
0.000422106
0.000479532
0.000155971
0.00028321
0.000460865
0.000181419
0.00341048
0.00242803
0.00276535
0.00189042
0.00368192
0.0022973
0.000792696
0.000298209
0.00168545
0.000944817
0.000718621
0.00105449
0.000501548
0.000287693
6.10928e-05
0.000308533
0.000534268
0.000333789
5.45865e-05
0.00125939
0.00533806
0.002375
0.00279697
0.0030487
0.00558309
0.00214639
0.000213723
0.00114525
0.00216089
0.00118551
0.0014359
0.00112593
0.00176717
0.00107201
0.00102703
0.00022833
0.00488413
0.00326342
0.00476179
0.00282718
0.00129862
0.00600301
0.00117299
0.00371134
0.00309811
0.0026139
0.00350448
0.00479246
0.000423551
0.000340744
0.00113066
0.000824668
0.00129301
0.00156497
0.00142081
0.0035628
0.00407809
0.00341784
0.00313768
0.00498479
0.00321796
0.00473638
0.000723084
0.00104068
0.001373
0.00145056
0.00121003
0.00269926
0.00254109
0.0028629
0.00288014
0.00312076
0.00322958
0.0024891
0.00308515
0.00384725
0.00298608
0.00351541
0.00254056
0.00592459
0.00599132
0.00784999
0.00701805
0.00254811
0.00271023
0.00273447
0.00843318
0.00672674
0.00839353
0.00668366
0.00261358
0.00262723
0.00258432
0.00890253
0.00664502
0.00879105
0.00663052
0.00218445
0.00275856
0.00308152
0.00877854
0.00626997
0.00826981
0.00624043
0.00285888
0.0031987
0.00332363
0.00894029
0.0061611
0.00882413
0.00636833
0.00376696
0.0028584
0.0026772
0.00823792
0.00695736
0.00882962
0.00647202
0.00303229
0.00250373
0.002634
0.00643974
0.0087983
0.00634313
0.000665651
0.00120178
0.00066518
0.0010848
0.0012517
0.00108198
0.00210993
0.00143929
0.00120033
0.00160717
0.0013332
0.00161143
0.0018548
0.000247418
0.00109265
0.000985711
0.000230106
0.000508709
0.000235911
0.000229145
0.00189292
0.00459715
0.00626054
0.00046423
0.000249288
0.00103511
0.000230092
0.000979862
0.000236448
0.000494125
0.000225741
0.000342722
0.00280179
0.00125675
0.000545791
0.00188587
0.000718567
0.000292917
0.00657443
0.00188963
0.0046852
0.00148758
0.00624797
0.00207029
0.00568997
0.00648085
0.0019441
0.00156689
0.00445144
0.0022175
0.0040723
0.00667482
0.000444242
9.97991e-05
0.000329994
0.000565626
9.12368e-05
0.000550643
0.000650688
0.00117754
0.00163585
0.00157203
0.00228986
0.000334931
0.000248659
0.000924654
0.00133581
0.00133409
0.00141364
0.000297454
0.000393341
0.00114829
0.00176728
0.00144124
0.000264885
0.00146591
0.000242467
0.00162583
0.000432759
0.00024448
0.0015362
0.00118036
0.00231992
0.000385341
0.00223819
0.000362477
0.00171633
0.0018984
0.00150355
0.00102629
0.00229169
0.00148986
0.000966715
0.000960502
0.000857675
0.000221089
0.000932135
0.000993541
0.000877427
0.000929029
0.00134183
0.000638256
0.000340954
0.000679723
0.00033715
0.00100273
2.42577e-05
0.00126011
0.0011295
0.0012892
0.00132131
0.00090697
0.00107637
0.000151445
0.000107289
9.85364e-05
0.000472932
0.000459329
0.00147881
0.00110157
0.000999946
0.00169884
0.00038284
0.000440101
0.000107013
0.000117971
0.00137776
0.0013584
0.00146101
0.000282018
0.00122707
0.000518488
0.000652446
0.000552421
0.000140297
0.00020192
0.000360397
0.000236498
0.00026387
0.000636634
0.00112119
0.00209965
0.000652303
0.00151896
0.000292312
0.00108802
0.000111099
0.000103399
0.000531125
0.000137686
0.000593197
0.000615315
0.00192376
0.00178579
0.00133897
0.00154103
0.00109519
0.000441572
0.000410265
0.000383256
0.000813328
0.000963646
0.000449144
0.000555657
0.00156802
0.00110389
0.0010038
0.00148428
0.000691321
0.000891101
0.000176401
0.000115228
0.000281943
2.76236e-05
0.000295575
0.000236255
0.000101501
0.000243191
0.0015611
0.000949277
0.00122602
0.0014065
0.00105611
0.000367495
3.52376e-05
0.00033753
2.48749e-05
0.000249428
0.00029231
0.000163451
0.00011037
7.33879e-05
0.000672584
0.000278071
0.000313786
0.000169984
0.000630719
0.000394496
0.00023635
0.00155796
0.00115626
0.000722566
0.000363851
0.00127186
0.00109248
0.000273498
0.000997317
0.000770663
0.000249204
0.000271975
0.00077908
0.000996876
0.000242946
0.000228654
0.00100766
0.000226458
0.00101773
0.000226709
0.000511622
0.000229254
0.000242317
0.00049463
0.000676435
0.000187969
0.000564142
0.000254669
0.000141144
0.000229757
0.0002269
0.00108395
0.000981614
0.000516985
0.000225494
0.00022994
0.000248127
0.00108231
0.000537965
0.00201139
0.000277377
0.00110125
0.000434602
0.000270692
0.000516824
0.00019468
0.000624697
0.000262476
0.000674412
0.000258867
0.00724578
0.00165264
0.00440779
0.00220417
0.00691389
0.00169589
0.0064241
0.00612848
0.0010545
0.00570939
0.0011871
0.00541803
0.0015696
0.0053143
0.00668628
0.00213443
0.00116992
0.00469384
0.0016367
0.00641222
0.00455889
0.000472003
0.000386519
5.03197e-05
9.1181e-05
0.000171987
0.000528029
0.000671064
0.000344138
0.000151647
0.000411191
0.000432621
0.00131285
0.00139664
0.000986161
0.00137003
0.000151583
0.000219244
0.000628726
0.00104196
0.000899519
0.000498343
0.000135268
0.0010318
0.00141314
0.00129592
0.0015187
0.000615512
0.000882845
0.000863132
0.00147919
0.00323757
0.00147261
0.00129923
0.000771371
0.00139506
2.39858e-05
0.000423028
0.000893115
0.000856941
0.00088895
0.00142733
0.000963622
0.00130502
0.000778245
0.00139354
0.00141622
0.000906302
0.00170944
0.00101684
0.00210826
0.00141185
0.00129941
0.00129964
0.000731379
0.00143855
0.000697672
0.00129586
0.00217632
0.000977136
0.00118826
0.00200081
0.00158124
0.00113933
0.00190412
8.02135e-05
0.00121026
0.00119667
0.000570682
0.0010608
0.00111474
0.00176222
0.00087608
0.00134822
0.00108326
0.000845846
0.00111028
0.00175427
0.000295261
0.000334166
0.00044759
0.00110437
0.000778167
0.000731324
0.000770464
0.000678621
0.000752767
0.000729536
0.000264493
0.000128152
0.000248214
0.000411317
0.000112933
0.000658801
0.000824912
0.00126037
0.00154937
0.000943013
0.000866262
0.0013568
0.000657088
0.00148237
0.00188743
0.00138204
0.0012194
0.00117718
0.00141582
0.000604454
0.000683037
0.00105859
0.00158081
0.000761959
0.000885311
0.00146029
0.000574181
0.000727865
0.000790538
0.00110895
0.000127179
0.000750103
0.000942243
2.69321e-05
0.000129888
0.000816253
7.14193e-05
0.000152386
0.000378256
9.69395e-05
0.000153403
0.000283936
0.000212653
0.000727977
0.000715651
0.00116894
0.00153691
0.000803955
0.000776405
0.0014091
0.000740154
0.000933965
0.00106255
0.00147712
0.00102036
0.000734707
0.00140851
0.000694817
0.00082957
0.000339527
0.00109985
0.00108461
0.000782145
0.000617555
0.000426897
2.42682e-05
0.000150203
0.000155028
0.000265716
0.000312656
0.000158553
0.000773533
0.00110771
0.00270957
0.0016286
0.00110754
0.00120599
0.00118985
0.000709095
0.000617936
0.00102255
0.00150459
0.000765557
0.00038703
0.00137671
0.00187299
0.000498444
0.000225778
0.00109615
5.99927e-05
0.0013835
0.00100838
0.000707613
0.000735331
0.000722806
0.00105208
0.00072901
0.00076982
0.000182462
0.000531882
0.000208143
6.88608e-05
0.00053
0.000480627
0.000655768
5.59486e-05
0.00200368
0.000915295
0.00309732
0.00376945
0.00150189
0.00150254
0.00393373
0.00211247
0.00122696
0.00428449
0.00459295
0.00140882
0.00215678
0.00434705
0.00182383
0.00158723
0.00316594
0.00626556
0.00132246
0.00199819
0.00611448
0.00125569
0.00339981
0.00168924
0.0014748
0.000324051
0.0015557
0.000722261
0.00123442
0.00124406
0.00121892
0.000413021
0.000393879
0.000574092
9.73611e-05
0.00159378
0.000940981
0.000467973
0.00139892
4.95263e-05
0.00139058
0.00166494
0.00177986
0.00206495
0.0026699
0.00137183
0.00126839
0.00353042
0.0017815
0.00131902
0.00418046
0.00377764
0.00149985
0.00118906
0.00431984
0.000431156
0.000393724
0.000569162
4.85001e-05
0.000972241
0.000613537
0.000902027
0.00110779
0.00188746
0.00162225
0.00143937
0.00525897
0.0033391
0.00165746
0.00112917
0.00597654
0.000115268
0.00044237
0.00079105
0.00011841
0.000791165
0.000763086
5.80877e-05
0.000265749
0.00021516
0.000300379
0.000690062
0.000337382
0.000563179
0.000748742
0.000717506
0.000669796
0.000600899
0.000636202
0.000762622
0.00069147
0.000827196
0.000301743
0.000724022
0.000739845
0.000675276
0.000737707
0.000704499
0.00063442
0.00110155
0.000861512
0.000151747
3.29062e-05
0.000901085
0.000998702
0.00107938
0.000925459
0.00107673
0.000908867
0.00110867
0.000200175
0.000802021
3.29994e-05
0.00107719
0.000869692
0.00106028
0.00077962
0.000911685
0.00096701
0.000973383
0.000787925
0.000550745
0.000455626
0.000782304
0.000956818
0.000495752
0.000997488
0.000821752
0.000577667
0.000429491
0.000922298
0.000857282
0.000494342
0.0009964
0.000473478
0.000887535
0.000249514
0.000814134
0.000973305
0.000513792
0.0014491
0.00130463
0.000726837
0.000932548
0.000991345
0.00123834
0.00164748
0.000585828
0.000730916
0.000688702
0.00062624
0.000781095
0.0013273
0.00136236
0.00153505
0.000934744
0.00110828
0.00240836
0.00308894
0.00303305
0.00254797
0.000700307
0.00135941
0.00114468
0.00231694
0.00137119
0.00112458
0.00204478
0.00154867
0.00117489
0.000806062
0.000430004
0.000670889
0.000780517
0.00158302
0.00112633
0.000446584
0.000605307
0.000864643
0.00181673
0.00152935
0.00123192
0.000670855
0.000271535
0.000758037
0.00141556
0.00116524
0.00079157
0.00058621
8.21845e-05
0.000276211
0.000339282
0.000693196
0.000692932
0.000243508
9.2214e-05
0.00033962
0.000733372
0.00200368
0.00129874
0.000848006
0.00124216
0.00161521
0.000582834
0.000393491
0.00121207
0.00105077
0.0012329
0.00143124
0.000276932
0.000280008
0.00103161
0.00185353
0.00186853
0.0010512
0.000379262
0.000232594
0.000749308
0.000261363
0.000958144
0.000828425
0.000817111
0.0015088
0.00100377
0.000597721
0.000193635
0.000713319
0.000690763
0.00146785
0.000178834
0.000692922
0.0011173
0.000971142
0.000716097
0.000365703
0.00035575
0.00065684
0.000700949
0.000724578
0.000761082
0.0018268
0.00124963
0.00155232
0.00113493
0.00153823
0.000850119
0.00104095
0.000384054
0.000990971
0.000758085
0.00158141
0.00143315
0.000878845
0.00145955
0.000373062
0.00129165
0.00169128
0.000449304
0.00120211
0.000998324
0.00146254
0.000561928
0.00145059
0.00122779
0.00142397
0.0025036
0.00119058
0.00108321
0.000418316
0.00165643
0.00146688
0.000516335
0.00106299
0.00118574
0.000123342
0.000110633
0.000185054
0.000311571
0.0008948
0.00110838
0.00222439
0.000898824
0.00134703
0.00079893
0.00102549
0.000205055
0.00074235
0.000884747
0.00107599
0.000102055
0.000663555
6.59592e-05
0.000934429
0.000838449
0.000779123
0.000272666
8.39987e-05
0.000319511
0.00010073
0.000589704
0.000759554
0.000706717
0.000805569
0.000604952
0.00104347
8.97266e-05
0.000653084
0.000591815
0.00048905
0.000494432
0.00066908
0.00063569
0.000456072
0.000503796
0.000815217
0.000292326
0.000243636
0.000380097
0.000623136
0.000376481
0.000658585
0.000427027
3.52147e-05
0.000629558
0.000778651
0.000495583
0.000343719
0.000800461
0.000476509
9.60055e-05
0.00032587
0.00117194
0.000714282
0.000796678
0.000763682
0.000219555
0.000705182
0.00035838
0.000288035
0.000417596
0.000160135
0.000278055
0.000670771
0.00106451
0.0008712
0.000358947
0.000700069
0.000505329
0.000654368
0.000417976
0.00120423
0.000700289
0.000750964
0.00109551
0.000510933
0.000285159
0.000806596
0.000773897
0.00134765
0.00130304
0.000736898
0.000448396
0.000760158
0.00129546
0.00115013
0.000768119
0.00156529
0.00108713
0.000969967
0.000768108
0.00134375
0.00209018
0.000228887
8.43551e-05
3.5434e-05
0.000160915
0.000215442
0.000514903
0.000705476
0.000303198
0.000652002
0.000242683
0.000183596
0.000300063
0.000348852
0.000151238
0.00075543
0.000734634
0.0006893
0.000794078
0.000910078
0.000720933
0.00104972
0.000981156
0.00116356
0.00139105
0.000163136
0.000216628
0.000750334
0.000849811
0.000864836
0.000956079
0.000739923
0.000217031
0.000745148
0.000870076
0.000998456
0.00175078
0.000778221
0.00123824
0.00104478
0.00166285
0.00218283
0.00123191
0.00127918
0.00177394
0.00404042
0.000218521
0.000241581
0.000760894
0.000799812
0.00034673
5.4829e-05
0.000760286
0.000149325
0.000313844
0.00038225
0.000222462
0.000186151
0.000675427
0.000797315
0.000308875
0.000756088
0.000170052
0.000184514
0.000388184
0.000386492
0.000301545
0.000177019
0.000866312
0.000836771