/*--------------------------------*- C++ -*----------------------------------*\
  =========                 |
  \\      /  F ield         | OpenFOAM: The Open Source CFD Toolbox
   \\    /   O peration     | Website:  https://openfoam.org
    \\  /    A nd           | Version:  10
     \\/     M anipulation  |
\*---------------------------------------------------------------------------*/
FoamFile
{
    format      ascii;
    class       volScalarField;
    location    "0.1";
    object      omega;
}
// * * * * * * * * * * * * * * * * * * * * * * * * * * * * * * * * * * * * * //

dimensions      [0 0 -1 0 0 0 0];

internalField   nonuniform List<scalar> 
114940
(
11.503
9.92035
11.5291
10.0225
10.3526
9.81798
9.94698
9.7206
9.71543
9.8484
9.69211
9.62188
9.66237
9.85616
9.93258
9.89814
9.59289
9.56883
9.61514
9.63219
9.98042
9.70747
9.95664
9.58236
9.64297
9.63727
9.9707
9.77489
9.71078
9.81022
9.79956
9.79374
9.83223
9.81103
9.54151
13.3624
14.468
10.7923
9.91114
9.56697
12.628
12.1299
12.2435
10.2239
9.81259
13.6036
10.559
16.4533
12.7919
10.563
13.1636
10.2466
10.0652
12.1633
17.285
12.9198
12.1234
16.284
12.6111
9.99588
10.4439
11.6499
16.0716
12.6085
12.1755
15.6839
11.5283
10.8877
10.3782
20.4129
12.748
10.3898
12.7081
15.8733
14.2397
17.4349
12.5008
10.4369
10.2746
10.1544
10.1573
9.97557
10.1372
9.92342
10.2254
9.65705
9.67845
9.86621
9.80797
9.71852
10.0157
9.75706
9.81579
10.0101
9.77659
10.1168
9.73819
9.5725
27.7024
14.4956
11.5217
10.2828
9.86734
31.3666
30.4117
12.0169
17.0523
12.7267
10.6008
30.2503
31.4424
11.7027
16.2246
18.7244
12.9501
12.6082
12.371
10.9256
11.7199
15.6917
19.035
12.3601
17.2776
15.6185
11.6715
10.5684
10.5745
11.0666
16.0553
20.2545
11.35
11.1481
16.336
16.7694
11.7127
10.7892
10.8343
12.4055
17.0003
12.8111
11.2396
15.9901
16.4551
12.4328
15.062
15.4546
13.2285
17.3594
12.216
11.9494
16.5619
13.6458
12.2835
14.5669
11.3376
14.3348
11.9126
10.2282
12.2252
16.6663
13.6895
12.159
17.9384
12.6688
10.4176
12.4879
15.9321
17.5309
12.742
10.5162
9.93053
9.83216
10.2482
9.88517
9.71614
40.2694
13.936
17.3773
12.338
10.4286
191.225
48.6908
29.0353
21.3779
19.3528
12.4719
67.4032
61.9114
54.8036
37.4286
16.4722
17.9043
19.1541
11.9621
37.8592
29.3037
71.5554
64.2263
41.6853
29.9308
19.3411
20.745
11.8369
13.3814
17.5532
35.5954
66.3673
69.8205
40.4787
17.9964
24.209
12.5458
10.6979
17.324
16.9918
34.9215
68.4794
74.754
34.9626
19.2382
17.6358
12.1477
10.9633
17.5769
17.7091
42.298
30.6308
33.5362
37.8981
17.1279
23.6996
11.3586
16.2755
15.5362
18.1641
33.3231
37.4174
17.6815
23.6816
11.604
16.2885
16.7298
19.1038
43.5291
15.6576
24.7414
12.3347
16.2056
14.7496
12.7842
17.7092
13.4061
9.94219
9.64924
9.65151
9.90875
10.0622
9.92946
9.73492
62.8764
11.9009
19.8694
12.3443
10.4313
40.2713
32.5808
15.7134
21.3315
12.4751
63.0069
36.3398
15.7199
19.241
11.9191
32.7114
30.7668
404.501
37.1173
37.2468
15.1985
22.2537
11.6785
12.884
17.3036
27.296
85.1899
181.604
64.6005
37.5488
21.5669
12.57
10.8277
15.3031
16.3575
30.1798
487.148
246.949
83.4958
39.8939
17.0457
11.9288
10.9708
16.1505
17.5703
27.8088
73.0644
783.416
48.9798
20.853
25.257
11.1444
17.4191
16.7354
36.9175
75.5357
166.211
53.2318
28.3531
11.6917
19.4545
18.6873
36.0819
29.9574
19.0314
28.9607
12.301
18.4864
14.163
11.1155
19.3598
13.2706
9.94742
9.63266
9.6391
9.9072
9.9466
9.63771
9.5554
64.1967
14.773
11.6212
10.3136
9.87308
77.0186
16.1213
18.5723
12.59
10.6501
85.613
69.3125
30.1634
38.9284
15.1492
20.9402
13.048
10.0126
41.4123
40.1569
29.1157
23.9121
39.8718
14.4738
18.2488
12.229
10.9918
14.6749
14.8983
20.9208
26.4256
32.1656
39.906
14.8308
21.2692
12.4044
10.8807
17.7763
20.4579
36.9618
27.2719
33.0773
37.5299
16.3589
17.476
11.3843
11.6568
18.7902
16.1835
20.2494
30.7191
30.6858
18.1884
19.9396
12.6254
10.1185
11.4892
20.2563
20.3829
29.7959
39.9307
19.8025
33.5371
9.96793
12.111
19.7849
14.8622
14.1328
20.1902
13.2069
12.6499
18.6891
16.6274
12.9469
9.77222
9.92871
9.85244
10.2808
21.9339
14.8158
16.4098
10.2799
48.6536
14.8909
12.7025
12.085
53.9957
15.2774
12.0272
12.1292
16.5398
12.6987
10.585
9.67857
12.6974
12.4188
13.9561
12.9594
10.3373
12.0819
18.8496
13.0481
10.0104
9.89241
10.2383
11.9365
15.4988
11.4426
10.9709
12.7791
15.7079
12.2425
11.0588
11.812
17.7702
12.6719
11.7476
10.5263
12.1464
21.1235
12.2169
10.0296
12.7315
17.8181
15.4841
11.535
11.656
20.8663
13.6385
10.8396
10.0659
10.1931
12.4635
18.7628
13.3064
12.1103
22.318
13.1582
12.6268
18.218
18.1587
13.3843
10.3908
10.1057
11.0818
18.4494
11.5316
10.2623
18.0972
12.0504
10.0973
9.71623
13.5266
16.4681
12.4252
10.2619
9.78209
9.99046
9.76188
10.0018
10.116
9.94873
9.67192
9.62554
9.68772
9.80853
9.89608
9.61735
9.64146
9.75066
9.57422
9.65152
9.64294
10.069
9.92166
9.89791
9.96347
9.59307
9.66852
9.64122
9.91907
9.96731
10.2789
9.81921
9.93079
9.64012
9.84954
9.78902
10.1538
9.84483
9.77347
9.80896
10.5166
10.1081
9.80984
9.57744
9.92498
9.59221
9.88585
9.72595
9.73193
9.85538
9.71745
9.634
34.2955
34.357
36.4409
40.8694
55.5101
38.5285
26.3428
38.143
114.581
36.2931
63.2556
73.6531
39.4463
28.7606
45.9145
68.3048
37.0623
29.5836
32.6377
19.482
30.9185
20.8551
24.1556
35.1652
27.6042
32.0837
71.0229
58.2919
15.055
58.1835
59.8637
73.674
37.0279
25.5411
36.5103
23.5718
59.338
14.6099
31.5544
14.8335
396.964
48.8965
58.4951
54.3772
58.0779
44.0241
32.0884
62.259
51.9157
37.6956
28.2198
61.9611
58.1355
39.3308
40.772
273.13
24.8007
70.8912
65.9148
34.5493
68.4617
69.2459
420.493
69.84
58.1954
73.5342
74.332
29.0533
60.6078
38.9073
55.9054
26.7429
63.3393
78.1073
30.411
40.0058
31.2029
299.409
34.4296
31.1567
76.6032
28.573
78.8969
397.261
61.1169
121.411
56.9191
63.9521
84.2575
60.8041
129.344
234.349
75.6473
64.1525
86.0906
246.488
67.3619
240.972
34.118
37.5123
32.9337
266.065
83.12
89.7589
208.738
80.2965
100.604
63.1976
13.281
59.2185
13.8775
78.7561
38.0459
100.833
70.0466
13.6398
36.1684
13.5969
61.1511
16.4605
54.7711
22.2044
511.309
89.4314
43.8928
72.6376
85.01
64.7948
29.1981
72.8618
196.35
90.5808
66.1327
39.0333
66.4924
316.091
88.69
71.1362
25.7967
30.416
80.8486
991.121
67.0595
33.3557
31.4231
81.034
63.9807
116.108
187.721
70.3226
34.5672
51.6949
72.9447
72.5467
884.078
263.461
26.5888
31.4939
65.241
68.93
109.149
84.9212
432.533
31.9087
30.0966
21.0882
27.273
98.3157
30.7751
30.6097
97.36
77.3513
23.1226
22.9318
34.3475
119.438
80.1663
28.1291
27.2559
33.9884
15.0721
10.7343
13.8253
28.4945
36.779
37.2269
36.9226
14.8129
10.4972
14.3859
21.9665
40.4441
22.4542
42.7151
15.2074
10.5995
14.9906
24.7844
44.3838
25.0761
44.0874
99.2405
83.6722
86.188
77.5496
42.6096
61.3149
83.5097
57.9639
91.0533
58.7622
62.083
58.4961
144.044
127.543
61.2871
66.2404
200.639
59.838
113.928
135.345
39.8642
72.1469
47.7106
33.6996
37.9324
210.085
54.0075
83.499
28.1367
43.3233
33.242
82.5499
28.2508
25.8489
79.3299
32.4058
79.037
103.174
276.512
27.6833
877.855
32.0324
75.0648
35.8189
59.7884
31.7981
229.07
63.2623
87.5845
36.9002
38.1037
285.26
49.0746
73.4673
39.6801
29.0855
32.6782
70.3038
31.3106
211.434
61.9594
39.592
28.2844
41.5195
79.1553
299.489
33.418
70.6861
16.6758
21.1146
55.3163
83.0898
16.9251
18.4632
52.1229
25.2144
68.4791
64.3971
21.09
58.2113
26.0049
106.08
179.821
54.8031
50.7913
136.579
38.093
85.475
337.942
86.4965
65.3461
161.482
157.104
89.3506
104.71
93.2386
30.2395
47.9255
38.5732
33.6731
69.7679
31.4447
244.935
35.8534
38.4089
34.2405
34.1187
19.7795
45.7073
59.8171
98.2335
31.5067
79.6989
41.1435
46.016
122.726
109.358
486.042
143.523
295.875
122.664
102.637
34.3558
162.331
58.4124
38.9504
35.4336
32.5602
31.2025
191.432
53.7035
326.162
21.8762
50.3916
31.8126
86.1138
113.373
101.584
205.313
111.259
91.9674
99.11
32.9551
223.704
74.5237
40.2592
35.789
33.6447
32.8338
276.338
57.6114
68.0279
60.8291
70.2583
37.372
30.8734
46.5223
131.333
375.776
120.868
361.074
57.8958
62.1243
36.8151
442.117
56.6991
40.3096
35.6974
21.3514
32.2143
572.892
31.3116
71.2281
23.3085
25.4268
44.3982
31.2043
64.599
14.8348
35.0238
29.465
65.0616
79.2545
86.5697
47.1702
83.3755
70.5556
66.9791
48.1986
32.6445
37.0434
26.7624
40.0628
76.1562
34.0889
36.0607
40.8235
37.1088
32.121
46.8979
33.2894
22.6831
42.3095
10.5029
14.8016
10.5597
14.6292
34.1617
23.6328
44.4951
10.6403
15.2648
10.6423
15.1443
28.9562
52.5307
85.8321
61.4104
80.1481
51.5992
98.0068
85.947
52.5488
65.283
78.6177
85.5633
71.2727
57.3484
66.7129
87.0816
57.0855
92.5372
105.763
54.628
82.232
51.9383
97.6616
63.5712
198.796
71.3947
82.3209
64.8821
49.4979
65.2303
57.8527
384.095
81.2681
86.4955
48.3962
81.8963
80.8146
71.8758
52.131
82.4223
519.601
82.4656
85.7144
405.107
76.9367
188.23
76.7226
56.8174
54.8482
46.5192
49.8127
48.226
46.3664
225.636
60.4654
214.063
187.729
219.357
240.969
238.381
78.9917
198.991
148.164
199.156
150.628
63.3286
63.0979
76.9265
117.775
58.0957
49.6619
54.7198
58.7255
60.4145
107.253
72.9583
49.9578
74.7063
56.8411
53.5866
70.602
63.5822
71.4613
58.2418
233.084
71.2285
85.3846
87.5489
90.5573
72.2243
76.3992
65.9218
82.5409
62.189
305.463
79.3288
76.6719
231.453
55.2987
56.3303
265.229
56.0909
179.272
76.0579
53.1204
223.944
51.408
126.884
180.974
168.034
170.26
82.4134
144.253
127.337
151.531
133.133
442.701
880.642
142.634
144.015
65.0472
440.289
117.783
115.298
123.574
126.08
60.9426
45.5381
214.579
65.2244
53.2951
64.443
53.0797
44.414
127.031
54.4542
77.3748
233.78
54.7622
396.301
135.083
135.578
309.562
55.7371
59.5562
193.905
154.442
783.534
266.243
126.277
107.812
62.8455
372.191
73.3405
186.803
130.007
68.2691
56.2655
109.376
57.7876
163.662
143.486
126.292
82.3897
55.9224
104.62
56.3489
101.167
142.589
181.842
478.998
125.438
134.55
638.448
166.361
78.769
111.092
91.6892
122.816
107.207
179.049
122.039
266.66
168.419
165.652
122.092
102.054
118.865
173.73
211.968
68.0524
54.7409
176.093
57.9517
143.633
168.183
212.77
88.3253
56.6999
113.623
58.1395
162.682
167.594
393.623
122.686
107.421
299.046
98.8631
170.924
397.71
70.4123
98.1843
214.727
90.6568
196.239
396.577
327.632
274.078
171.399
408.202
155.839
226.026
218.15
60.7334
148.208
106.275
194.782
81.296
114.135
186.416
60.5917
62.9588
183.395
169.058
86.7435
58.4904
184.862
52.2987
75.0967
156.85
173.372
76.9394
50.4949
185.359
94.2838
92.1344
96.7616
91.3526
93.2996
96.161
89.9899
92.3943
19.7827
75.6291
22.1502
82.7957
19.2478
81.1845
19.6071
50.2312
76.8219
18.9818
79.8813
49.9508
17.5789
76.1281
18.8505
17.9192
80.0328
92.7506
115.288
70.5286
68.5617
104.978
95.4797
91.7517
113.712
279.161
68.4299
90.7303
125.083
102.659
429.294
124.756
114.038
124.389
223.623
50.4098
45.4656
277.459
102.296
185.894
243.57
76.4329
46.8307
79.2306
237.323
96.3369
118.922
54.1167
167.921
69.4812
51.9173
90.529
379.517
397.361
69.5544
133.444
89.5345
103.174
142.783
70.9812
519.015
47.6678
81.6985
127.197
100.136
108.448
158.406
81.6468
119.264
1385.38
95.7827
72.3982
101.599
73.0753
42.1196
83.9775
65.0611
78.0257
42.5592
80.7108
47.8001
57.0799
69.3585
153.991
53.4359
74.3261
82.7055
161.119
131.115
154.234
130.69
93.2548
115.55
303.461
157.216
86.7726
345.287
107.651
88.9588
122.065
99.3853
157.006
106.911
270.975
103.043
103.659
92.8435
68.8253
60.1498
68.4172
103.525
72.5199
57.7628
126.741
213
110.484
98.6058
244.049
125.402
204.365
146.091
121.562
226.67
109.455
115.342
69.0197
59.5461
75.4684
165.153
63.9728
44.6138
354.378
373.284
69.1411
360.256
62.6523
39.605
46.0436
189.84
253.154
56.6528
356.573
69.0061
42.1778
93.8357
75.6068
92.3924
64.6874
54.663
76.5701
61.0152
95.2068
89.5394
91.1227
84.2894
82.5536
58.8833
73.0826
61.7783
51.8088
143.814
75.5743
84.3751
61.2129
51.4871
204.135
79.5595
85.6446
66.0784
45.1769
90.8006
67.8597
59.4732
57.5026
134.205
89.9891
78.4167
75.6091
52.5261
17.9503
28.063
17.549
21.3551
29.3281
67.7658
31.9165
43.2101
23.7257
24.5899
61.8613
35.0984
37.3156
14.9446
11.9831
14.3029
29.8096
34.0168
21.1084
29.1392
16.8725
10.8148
17.1056
39.4406
27.5651
25.513
38.6611
14.3069
10.7422
14.4354
23.3928
40.8348
38.1284
41.6452
16.0383
10.7438
15.213
41.7182
37.4127
28.5133
29.3622
15.2043
11.2952
15.7767
26.6976
45.197
40.7868
41.6307
16.3211
11.4639
17.6777
27.137
32.681
38.4731
26.0211
144.019
106.641
107.671
86.5901
22.319
33.3159
34.1106
27.9814
23.9048
30.7658
29.7493
35.0794
65.0775
22.8537
67.375
29.7741
54.7668
37.8371
114.599
56.9762
65.7708
223.921
58.4185
393.87
74.6156
23.8808
41.1522
37.0151
35.0591
23.7217
32.4118
31.396
56.5154
107.51
143.313
81.8117
52.5729
58.504
79.3719
217.67
60.1961
67.6835
106.472
60.0726
84.3603
133.35
82.6124
28.3096
42.5524
32.047
395.036
29.333
35.6304
55.6854
151.062
161.247
100.574
68.9282
59.8138
100.555
61.9825
59.0728
69.7806
107.79
56.0552
69.5618
88.877
39.4386
13.2764
22.8199
24.9313
69.9167
16.9923
46.0331
42.4741
30.2153
41.1661
305.223
79.1501
80.5393
186.976
99.7619
537.939
83.6073
85.4637
123.208
109.943
300.865
129.506
131.467
97.8658
151.269
60.2767
87.0621
200.94
41.5771
11.1132
16.363
32.699
35.7127
11.4064
16.0201
60.4099
62.9934
160.987
81.0273
56.3231
80.5563
194.564
185.271
178.182
141.249
661.207
68.5999
28.1878
32.7274
31.7885
27.4694
27.2431
41.3832
358.089
76.7047
87.401
81.2504
63.7262
92.5947
74.5916
222.844
142.38
116.112
242.59
152.733
132.355
264.037
28.4578
40.1615
34.961
50.881
26.6803
43.4074
96.4313
190.334
51.1237
83.546
100.233
83.7154
147.497
161.331
326.225
167.663
121.489
185.547
323.534
64.8316
19.0891
42.3417
35.3769
31.7768
18.2181
46.5172
255.164
76.5984
42.6037
70.5938
65.4542
68.47
54.108
73.9713
79.8234
172.137
20.0404
28.8182
20.4834
32.4341
59.6811
16.1894
70.9982
25.9407
31.5892
36.0417
27.4709
20.4435
120.552
137.512
77.4397
86.7314
63.2744
57.5757
58.9534
27.1295
24.6566
27.4651
31.2023
19.6642
31.0017
20.6786
91.4346
87.7358
66.8719
60.2208
66.998
34.0951
37.7803
33.0679
33.4942
30.322
30.588
38.2071
32.7883
25.7876
31.6241
27.0665
37.3553
16.6001
16.0759
12.3457
13.5943
37.8988
35.8721
35.3085
11.4375
14.17
11.4524
14.3682
36.6998
37.0965
39.1247
10.738
14.3349
10.9287
14.3714
43.5036
35.8769
32.9719
10.9046
15.2094
11.6275
15.3181
33.9235
30.3531
29.569
10.6554
15.4593
10.8286
14.9577
25.2149
35.6012
34.9366
11.6925
13.7309
10.899
14.7498
32.6451
40.7515
35.9172
14.8373
10.8619
14.9581
94.0325
64.6574
96.5604
74.4139
66.3999
74.0686
42.5318
64.3374
65.5621
56.1704
61.5829
58.7694
46.2741
160.547
75.0149
88.6101
157.618
113.686
159.566
157.742
46.0127
20.685
15.2404
114.893
160.134
78.1072
157.585
86.3016
159.802
116.31
160.204
131.796
31.77
62.4676
110.607
44.9261
92.7674
139.445
14.5028
46.111
20.2576
55.4045
15.2567
42.0377
16.6625
14.6682
44.3423
54.6205
20.6127
39.4863
22.598
14.2826
121.685
213.354
140.118
104.399
252.478
110.672
110.429
64.9552
52.0891
52.3341
39.2527
131.548
198.648
82.7175
62.3786
60.7671
56.4426
169.111
133.432
70.89
47.972
54.81
162.951
54.1707
186.685
51.2199
120.535
163.927
54.9811
66.1688
39.0383
129.388
40.3932
134.799
49.183
47.0256
56.0262
82.0598
39.9593
56.3636
76.7292
78.4412
79.5882
197.21
80.9899
76.8138
79.0721
83.9405
59.4211
102.847
168.76
102.203
144.091
76.0509
628.921
73.1106
70.5866
71.2369
62.6843
89.7904
71.0709
304.917
249.98
254.389
128.884
120.94
58.3856
76.5665
78.4185
52.2241
136.183
126.484
311.854
234.193
59.0177
69.2811
56.9482
189.756
65.5492
116.247
102.604
109.205
246.505
191.204
134.527
165.776
158.153
108.967
78.4401
42.9423
101.967
57.1918
175.903
71.4095
227.773
246.713
113.692
285.072
102.677
111.624
49.1927
48.2033
60.4505
56.9269
71.3517
146.672
133.723
139.666
86.7236
77.8203
139.049
120.386
55.5086
73.7825
77.8402
57.845
99.9569
92.5085
207.995
213.251
164.962
1213.9
164.284
167.043
411.514
214.172
54.8242
90.6494
70.6873
60.5858
78.0781
166.682
351.482
156.732
674.278
159.686
206.039
180.186
350.033
262.809
105.126
156.389
157.656
289.232
109.48
148.587
210.023
54.8076
70.1824
98.424
149.753
64.4828
78.1123
186.493
75.8269
100.455
188.479
181.956
95.4205
75.5434
186.08
159.682
90.4635
157.351
90.4193
157.925
116.579
157.484
158.213
115.008
95.4414
199.026
103.789
148.719
223.521
159.271
157.397
82.824
90.5362
115.979
160.385
157.62
144.616
70.3871
112.647
42.7563
141.58
70.4659
121.038
121.704
112.191
197.381
96.6183
145.731
94.6653
164.572
13.2236
52.0635
20.9088
39.3799
13.8325
49.9883
14.7961
15.4566
78.5881
16.6664
63.6711
17.6079
53.8416
17.7774
14.1654
40.6775
64.3415
20.3148
50.7385
14.8248
20.6278
121.046
151.173
375.683
229.789
264.533
107.548
93.902
134.803
268.628
146.342
138.999
62.5584
58.9699
83.8931
60.5566
284.304
215.531
99.6958
73.2527
79.8878
120.666
247.44
72.6902
56.9602
62.737
58.4713
108.444
84.6243
86.712
60.3003
28.4795
65.9487
60.9275
110.414
60.0103
1084.18
125.565
82.6397
85.5971
99.7674
68.6976
95.5348
63.3303
124.106
61.8652
61.278
90.6537
51.8824
81.9949
43.5102
63.0225
65.249
67.0091
103.453
57.7327
95.8365
63.8262
40.6928
81.3082
64.9658
47.7872
56.0517
67.872
46.0296
543.122
66.4448
75.7318
116.829
82.2622
69.3301
48.257
81.444
60.8577
75.933
90.9496
70.1287
47.9187
172.045
138.7
121.398
68.8003
92.7459
105.458
113.094
109.721
105.915
111.021
172.142
291.198
179.332
137.779
299.331
111.265
87.1748
63.0436
59.447
77.6815
87.9164
61.2075
110.282
59.8647
49.6155
61.6708
66.7209
65.6945
59.8415
120.634
111.745
74.7206
55.2977
101.732
87.4215
59.2738
126.764
92.5199
89.9725
70.532
223.612
100.7
89.8462
1275.44
417.605
85.8025
490.329
265.906
147.731
271.793
249.959
156.826
224.824
99.8879
112.223
67.6289
62.3569
92.2849
100.618
60.7447
100.947
86.7241
75.9913
57.6946
82.5461
100.782
61.5174
113.577
93.9927
173.56
71.0228
77.5299
98.4087
103.885
133.929
614.899
264.582
267.472
174.311
150.624
279.123
98.046
81.5126
33.9408
59.6846
72.1016
72.4648
69.4199
111.081
114.646
77.6876
57.8667
98.3478
162.581
61.63
50.0595
122.632
177.715
73.0705
358.112
61.7593
80.7397
106.119
92.7281
99.2936
75.2009
96.0552
92.2817
251.938
144.155
228.24
358.408
141.414
145.357
120.455
365.455
46.1291
90.5356
30.3606
25.9383
58.4129
60.446
24.2963
44.0942
71.3634
23.1672
20.988
64.0871
43.869
22.1566
48.5234
57.4508
29.6946
15.9064
63.7131
44.9855
16.2296
63.3385
27.6866
51.1475
57.13
139.988
55.4464
89.5336
67.108
63.3658
66.0745
123.824
125.717
102.902
307.621
54.7602
76.2256
116.699
59.4563
412.779
58.0644
51.3124
51.3728
43.2083
34.7741
60.5752
67.0264
26.5124
50.5269
69.6527
23.1165
25.7537
59.4295
66.0929
21.899
118.863
125.812
104.345
437.847
77.6648
101.112
87.4679
72.3844
46.6418
53.4507
64.7786
18.3164
28.2789
54.2744
70.4366
16.024
283.045
123.566
95.4203
273.366
91.8684
91.8432
321.504
177.056
235.967
153.44
97.5168
147.282
107.28
91.9846
99.5877
103.442
115.906
108.742
91.1762
104.626
93.8669
198.53
98.3741
100.248
103.854
95.6859
98.1129
107.701
72.9365
89.4697
338.317
579.89
90.6185
79.7985
75.2106
85.7434
75.5978
86.8353
73.1171
239.174
90.0301
647.401
74.6344
92.7799
76.1539
103.655
88.781
84.8339
79.471
91.4316
113.99
129.633
90.7399
80.2416
128.54
81.4966
107.14
113.446
140.957
84.3733
106.824
128.186
82.0718
127.202
98.6413
146.136
109.999
83.7096
125.688
68.8782
63.0269
104.987
89.7931
78.3914
63.7649
52.5506
119.593
91.2805
96.7717
104.912
90.5002
59.9433
58.6036
57.0868
79.6045
71.921
38.3801
30.745
31.3475
36.0387
95.8827
59.7921
69.2237
38.5882
58.9875
71.4101
43.979
55.811
76.4549
107.073
144.605
121.235
89.1813
54.6125
78.5045
149.876
117.925
84.9112
48.8952
56.4016
64.7158
104.519
185.743
88.5641
57.6547
70.8106
90.7532
125.409
307.937
182.167
164.8
96.448
102.179
229.581
290.655
161.872
92.5928
42.7307
63.252
85.6877
79.317
54.5399
108.415
158.633
66.129
75.4505
66.7148
61.3113
186.01
181.193
78.0782
46.8398
46.6416
75.3322
140.484
210.481
93.2672
195.301
79.0934
88.9845
89.8355
57.2066
86.9071
110.007
157.108
104.81
102.07
58.298
288.918
103.857
73.5124
86.7786
106.598
149.272
198.986
111.525
105.34
107.529
92.8875
52.7938
67.228
57.1567
75.3565
57.5059
87.0629
76.9942
183.353
81.8598
95.263
55.1284
60.2965
87.0331
65.0823
147.458
73.0819
51.8543
134.355
66.3963
76.9296
64.5478
115.675
59.1093
66.2929
65.7756
39.5148
66.4937
80.8391
147.357
52.5331
57.4091
122.377
83.3286
67.4689
274.319
344.349
206.659
143.965
80.842
71.8073
40.3407
81.4499
57.9375
83.991
75.2475
271.171
120.678
79.4222
72.6554
249.764
93.7918
316.151
78.7492
83.7145
85.306
150.809
227.014
140.787
441.997
102.12
86.7061
125.734
90.6129
99.072
75.2332
291.613
108.846
117.068
129.416
129.995
107.135
118.108
132.263
132.598
88.3631
192.249
186.549
147.864
111.22
147.444
114.629
150.276
503.291
105.467
96.5944
129.163
186.268
106.066
166.215
558.602
186.091
70.5651
96.3314
90.5262
98.9163
404.106
109.858
165.837
179.656
143.302
342.131
209.075
105.366
85.5874
83.9715
154.074
111.344
113.912
98.8152
152.356
66.3846
104.69
101.935
70.1426
137.078
202.252
91.1084
93.351
60.7599
62.4718
95.6372
149.493
94.7633
63.1072
70.5826
102.516
55.8969
82.3691
82.7456
93.1182
61.3138
43.1366
215.474
247.468
1738.74
276.349
214.691
136.492
116.951
150.076
126.616
197.569
257.858
157.258
146.73
324.274
102.724
109.311
118.971
88.4493
87.5991
109.922
84.0365
81.4638
67.467
57.6593
153.166
203.656
105.048
94.4425
94.6626
81.2657
94.9832
206.548
91.8709
92.9463
78.8641
47.9705
88.6576
64.9965
79.1053
52.8693
43.7948
68.3296
68.4749
50.6719
24.6288
204.808
208.236
98.4182
99.0228
144.917
448.179
97.3513
267.72
163.092
159.411
205.303
234.583
106.964
107.149
151.639
99.6579
229.696
250.52
162.859
161.929
150.517
255.563
93.8524
103.858
812.831
92.8151
179.704
108.605
125.431
106.024
62.7797
74.7408
89.6112
370.544
138.527
182.901
62.875
45.1133
101.81
328.824
71.5791
57.0169
49.7218
59.499
90.2787
49.3822
77.0825
59.7599
134.823
56.3137
56.5391
73.7861
69.3989
104.303
113.637
49.0759
37.7733
108.641
100.957
42.9124
143.496
155.368
228.39
102.316
111.466
323.295
143.878
149.437
362.725
357.253
124.087
172.849
344.703
128.08
112.347
153.556
90.3056
96.6713
105.015
139.99
71.6774
145.796
148.744
250.625
359.636
342.034
142.767
129.279
107.792
46.5408
99.1992
74.04
126.757
98.4744
55.241
165.758
68.1914
82.5258
68.155
130.761
80.9509
68.7341
352.272
52.612
43.8308
61.2103
174.329
73.4226
47.3752
58.5217
24.7449
50.1149
24.691
43.2352
27.0197
27.3318
128.947
93.9317
66.6762
78.7452
98.7601
117.322
79.289
135.653
138.182
423.389
294.382
93.0605
104.187
84.7165
108.684
119.652
183.403
152.99
78.6107
120.763
84.8297
456.821
105.227
79.7504
207.438
70.0329
489.36
98.4993
128.574
75.1034
85.8012
74.1923
99.5679
83.0859
297.972
95.8049
173.549
115.952
84.0356
287.549
111.389
107.526
59.8032
65.7522
76.7279
47.6186
51.9014
47.7123
121.063
60.6172
54.9802
72.4413
62.7389
62.002
43.4575
92.936
81.8336
50.2398
64.8931
60.7129
23.106
33.0462
148.643
79.6273
69.0384
133.038
131.811
114.525
154.345
168.615
153.365
115.221
227.925
148.742
294.421
108.293
120.656
114.539
132.323
458.504
129.7
104.62
90.734
137.601
118.531
195.2
266.949
93.6188
129.16
203.434
171.937
349.021
106.006
226.625
142.78
105.472
197.552
124.533
90.7949
131.02
108.434
183.91
122.589
86.0861
121.465
157.87
279.055
151.037
78.8144
133.38
71.6783
155.233
133.045
112.21
156.627
89.9565
88.7662
144.111
166.212
124.795
161.993
169.308
166.971
138.297
121.451
66.9643
86.0935
128.641
148.702
105.891
518.093
146.736
147.616
144.336
179.391
138.502
69.924
68.0517
119.866
144.993
76.3715
144.927
132.555
137.184
116.903
153.478
136.107
130.626
53.0113
72.054
120.435
146.346
68.695
121.211
108.387
123.225
111.885
153.508
229.775
159.208
410.728
255.822
98.7699
84.6591
93.4559
128.321
125.388
453.234
415.084
86.4202
143.539
147.298
118.687
234.899
80.9875
178.293
81.4231
285.111
79.0584
118.242
79.7586
206.651
81.1963
515.178
74.5326
79.7601
320.276
85.2779
89.0567
47.2299
76.0302
47.6475
81.6138
109.78
85.3059
418.653
149.661
140.372
83.015
106.102
85.2492
94.8339
121.572
109.043
88.2781
424.548
93.0172
278.423
82.8154
223.994
85.1536
82.4214
97.1582
128.123
79.7581
78.4307
194.654
83.2383
1041.27
239.652
121.814
199.511
93.7958
107.75
107.391
1386.9
283.158
115.917
83.4878
102.374
283.094
119.657
234.158
117.836
86.5221
81.2376
101.48
98.2532
95.3933
94.7668
91.8094
91.4884
97.1444
92.3078
96.949
91.8382
95.0801
93.102
91.0137
90.7704
97.6682
93.5985
97.8894
93.2486
83.8249
93.2873
87.1197
88.5648
82.7391
85.4642
90.635
79.5296
86.5685
97.9257
89.8266
95.4539
83.6802
89.5657
89.6462
80.6645
361.308
288.945
458.767
261.743
285.047
333.767
181.541
365.987
209.519
230.854
153.902
123.816
622.599
107.682
242.902
136.454
154.053
112.534
152.741
95.069
151.203
174.604
242.36
110.203
111.654
167.345
267.323
171.879
152.107
164.04
196.683
116.53
166.362
319.697
233.401
160.35
138.365
139.149
136.471
171.447
108.573
122.825
124.118
150.842
94.9464
98.0501
108.115
104.995
147.811
81.031
224.426
118.486
138.576
126.899
162.837
100.867
119.542
110.081
469.772
117.714
158.207
95.0901
220.978
69.66
162.714
81.3897
78.8743
75.9074
79.4188
60.1858
63.6812
79.7683
154.578
96.6422
83.1562
144.202
107.876
104.498
110.876
107.193
95.617
85.0763
86.8006
79.3073
101.068
92.3579
108.679
81.4838
103.041
105.35
89.9924
106.713
87.5364
104.542
112.105
106.832
89.0436
427.802
90.0522
105.774
105.591
515.193
103.032
125.731
161.887
250.548
248.393
207.69
80.9059
126.424
178.354
127.37
120.347
175.157
82.7936
177.982
128.385
179.683
162.455
65.4567
113.279
102.192
258.734
62.1899
114.217
111.232
65.6706
256.614
127.59
113.772
113.281
100.232
64.0721
109.462
741.549
138.358
258.059
119.326
660.261
123.6
231.198
114.126
72.6167
115.251
100.348
99.4533
477.987
231.818
99.2595
108.613
75.8016
383.785
112.953
102.106
149.236
131.144
99.627
92.2996
396.906
175.88
83.5737
97.6071
201.081
95.5581
105.321
405.85
87.9742
107.938
206.419
94.438
104.168
376.859
87.078
106.008
216.916
102.88
176.272
98.2771
385.196
87.1732
97.6836
196.965
76.3996
94.9138
175.206
168.797
76.117
91.5136
305.796
75.1089
106.622
140.179
170.853
303.93
112.808
86.1334
75.0996
170.219
101.57
175.188
90.2372
319.098
89.3479
683.229
121.681
660.456
302.898
129.648
126.165
386.07
259.859
155.849
278.221
192.328
107.093
101.097
96.1273
390.305
76.5527
143.463
137.757
110.751
250.091
111.104
107.069
89.3625
146.25
137.647
117.393
475.771
335.462
276.361
216.448
152.348
343.836
1027.64
202.183
273.853
263.068
105.057
304.414
214.293
184.263
247.338
178.886
114.675
186.274
203.933
411.982
118.918
173.773
142.119
194.624
129.595
163.428
90.6728
92.188
310.868
200.398
97.5581
80.0335
330.135
90.428
104.198
175.904
148.625
100.004
88.5555
163.355
94.3022
334.92
103.331
178.864
100.253
93.0443
163.901
87.8045
201.387
97.6539
160.462
100.845
79.599
151.319
228.202
88.8261
215.243
178.488
90.9856
232.652
248.188
106.723
191.036
105.837
329.926
245.47
219.096
179.902
87.1106
254.271
88.9341
339.438
288.09
354.813
244.767
154.351
306.927
97.9311
197.682
127.056
91.6332
172.956
148.223
285.534
94.1985
93.5972
118.163
162.021
174.441
221.709
334.374
402.496
131.712
160.39
175.177
86.7511
149.011
79.2265
82.0616
93.1347
137.543
116.801
80.8841
87.2119
141.652
85.9521
88.4803
161.085
135.39
78.3498
111.98
151.966
93.1387
143.285
97.3103
166.613
82.1843
108.928
147.878
88.5698
126.306
94.3437
138.431
80.1112
94.2687
145.299
86.5589
97.1275
113.886
109.167
88.7554
84.9268
107.27
88.211
95.115
107.569
118.645
94.4947
86.1861
107.612
84.6293
119.435
92.3704
125.555
84.5746
87.7287
112.143
137.612
342.14
262.504
176.064
146.064
1890.07
286.315
184.11
178.871
99.0288
174.881
156.384
139.103
151.95
164.06
109.601
252.809
159.669
162.114
342.631
311.12
188.006
171.045
116.179
147.16
137.099
120.811
165.148
150.775
102.015
166.02
143.54
142.382
131.416
111.299
334.435
166.956
196.507
173.278
282.416
182.447
208.6
323.851
246.611
223.462
179.985
185.308
183.97
139.442
160.334
126.483
162.492
126.909
153.551
166.332
127.598
144.135
98.0329
142.97
141.767
127.679
334.637
974.031
134.386
130.345
111.799
155.679
123.675
151.596
170.957
159.876
132.451
151.283
139.872
454.265
77.214
89.2315
244.022
351.374
79.5733
89.8841
199.771
81.8391
102.994
214.195
120.075
109.13
78.5319
197.226
81.9117
248.542
109.459
210.203
110.016
82.823
202.822
76.4888
135.446
87.028
138.647
75.8287
88.3834
194.093
98.1981
95.0795
200.018
133.947
94.1066
95.4991
133.313
91.0804
106.091
134.126
153.597
105.036
85.8737
143.024
95.6859
201.026
106.908
135.223
106.555
91.2387
141.542
93.0372
149.542
87.0328
141.186
85.8395
97.009
147.686
383.101
164.156
370.646
140.1
182.107
346.107
121.165
147.87
165.803
133.17
300.556
140.074
101.777
165.674
139.827
196.272
154.973
461.313
215.995
303.434
136.478
116.886
102.152
143.113
133.225
150.787
352.693
149.553
138.439
339.774
190.209
213.216
185.614
119.326
160.612
295.174
142.22
127.486
108.467
83.2821
92.1664
156.767
79.791
137.028
112.109
110.272
117.449
151.81
98.8809
125.619
105.953
131.032
80.8757
92.1222
78.4882
111.57
130.903
113.133
270.273
121.991
154.675
100.466
133.327
113.525
177.872
131.412
121.51
373.794
2211.64
329.582
272.116
321.893
370.239
264.925
325.96
327.374
351.155
215.275
195.761
803.373
222.146
927.18
343.726
170.118
209.357
290.757
205.791
162.358
206.051
787.941
128.698
192.785
122.65
148.118
125.874
174.543
126.239
90.7715
141.841
65.6616
186.474
90.4342
202.434
73.7672
100.668
275.566
94.1404
178.205
134.126
206.701
78.7735
125.344
90.9621
147.278
110.268
165.661
121.557
87.5649
87.0233
69.4968
185.764
178.278
200.384
70.5665
72.0248
68.5068
98.9975
89.4546
172.262
79.4233
71.6022
159.587
71.2818
100.849
86.57
175.446
76.0725
80.6311
165.91
67.6632
72.2201
173.244
176.389
68.217
78.4655
162.242
76.5065
180.532
88.2029
176.296
76.079
83.8968
184.3
76.1424
76.8258
184.842
177.34
77.0077
82.0168
185.801
160.426
96.7343
159.672
123.331
158.396
160.117
136.464
160.237
94.6577
124.408
160.491
159.779
136.458
158.018
160.316
158.501
108.775
115.452
159.493
158.352
127.458
103.323
308.071
161.193
157.845
103.411
160.301
623.45
161.595
109.199
122.222
161.175
159.772
116.327
159.547
159.893
97.874
101.092
297.789
161.363
103.153
210.39
296.794
266.425
161.674
157.86
111.562
102.334
157.041
160.617
110.33
572.739
281.694
160.542
82.6026
148.986
123.28
135.208
162.473
154.964
159.693
96.5556
160.818
127.591
134.294
158.315
159.031
159.961
159.952
121.458
118.424
130.105
157.547
154.58
176.759
179.475
145.234
67.3807
128.174
111.085
145.994
142.877
72.7839
158.851