/*--------------------------------*- C++ -*----------------------------------*\
  =========                 |
  \\      /  F ield         | OpenFOAM: The Open Source CFD Toolbox
   \\    /   O peration     | Website:  https://openfoam.org
    \\  /    A nd           | Version:  10
     \\/     M anipulation  |
\*---------------------------------------------------------------------------*/
FoamFile
{
    format      ascii;
    class       volScalarField;
    location    "0.1";
    object      omega_0;
}
// * * * * * * * * * * * * * * * * * * * * * * * * * * * * * * * * * * * * * //

dimensions      [0 0 -1 0 0 0 0];

internalField   nonuniform List<scalar> 
114940
(
11.5005
9.92303
11.528
10.0247
10.3528
9.8203
9.94846
9.72333
9.71805
9.85107
9.69551
9.6254
9.66501
9.8592
9.93268
9.90083
9.59657
9.57275
9.61837
9.6355
9.98146
9.71108
9.95845
9.58619
9.64589
9.64054
9.97188
9.77792
9.71467
9.81327
9.8017
9.79695
9.83409
9.81416
9.54588
13.3557
14.4482
10.792
9.9141
9.57123
12.6198
12.1209
12.24
10.2242
9.81486
13.5998
10.5568
16.4705
12.7908
10.5588
13.1575
10.2463
10.0684
12.1488
17.2975
12.9147
12.1231
16.285
12.5923
9.99878
10.4394
11.6333
16.08
12.6034
12.1762
15.6851
11.5204
10.8827
10.3797
20.4194
12.7426
10.3908
12.7063
15.8736
14.2387
17.4416
12.4964
10.4367
10.2724
10.1556
10.1574
9.97706
10.1364
9.92466
10.224
9.66091
9.68224
9.86931
9.80924
9.7213
10.0165
9.76022
9.81873
10.0112
9.7798
10.1164
9.74189
9.57679
27.7146
14.4811
11.5179
10.2823
9.86961
31.4137
30.4511
12.0073
17.0722
12.724
10.5967
30.262
31.478
11.6936
16.2143
18.7377
12.9434
12.5917
12.3598
10.9218
11.7094
15.6804
19.0412
12.3575
17.2765
15.6044
11.656
10.5624
10.5681
11.0555
16.0402
20.2652
11.3456
11.1498
16.3368
16.7529
11.6978
10.7803
10.8269
12.3916
16.9874
12.8014
11.2416
15.991
16.4413
12.4149
15.0538
15.4423
13.216
17.3645
12.2111
11.9488
16.5621
13.6435
12.2846
14.5527
11.3327
14.3224
11.9064
10.23
12.2242
16.666
13.6693
12.1576
17.9463
12.6615
10.419
12.4882
15.9322
17.5361
12.7369
10.5145
9.93218
9.83466
10.249
9.887
9.71936
40.2436
13.9241
17.3986
12.3343
10.4265
191.816
48.8483
29.1194
21.3839
19.3625
12.4641
67.6735
61.8619
54.96
37.4005
16.4527
17.9041
19.1543
11.96
37.8985
29.2787
71.8489
64.5201
41.6798
29.9452
19.3365
20.7579
11.8306
13.3846
17.559
35.5471
66.6446
70.0253
40.4164
17.964
24.1765
12.5345
10.6948
17.3229
16.9877
34.865
68.8101
75.0168
34.9786
19.2059
17.6243
12.1426
10.963
17.574
17.7117
42.3002
30.662
33.5544
37.9684
17.1014
23.7237
11.3571
16.2662
15.5088
18.1753
33.3445
37.4279
17.6597
23.666
11.604
16.2901
16.7136
19.1124
43.6593
15.636
24.756
12.3336
16.2027
14.7483
12.7795
17.7193
13.3961
9.94434
9.65212
9.65463
9.91049
10.0635
9.93081
9.73803
62.9532
11.8919
19.8927
12.3408
10.4292
40.2734
32.6928
15.6982
21.3412
12.4672
63.118
36.4564
15.6897
19.2519
11.9176
32.7284
30.7624
405.326
37.0446
37.3479
15.1751
22.2662
11.6724
12.883
17.3119
27.2401
85.6186
182.121
64.8194
37.6612
21.5201
12.5585
10.8248
15.3034
16.3567
30.1688
488.337
247.791
83.4576
40.0475
17.0418
11.9216
10.9706
16.147
17.579
27.7625
73.2911
785.235
48.9098
20.8144
25.2768
11.1453
17.4214
16.7174
36.9188
75.7769
166.871
53.2663
28.3169
11.6917
19.4506
18.6622
36.097
29.8921
19.0121
28.9209
12.2999
18.4763
14.1461
11.1162
19.3717
13.2605
9.94946
9.63576
9.64237
9.90898
9.9479
9.64166
9.55975
64.2203
14.7615
11.6152
10.3127
9.87512
77.3635
16.1083
18.5959
12.5896
10.6455
85.7184
69.3884
30.1882
39.0245
15.1341
20.9448
13.0396
10.0133
41.4644
40.2074
29.1065
23.8816
39.9903
14.4474
18.2598
12.2298
10.9866
14.6805
14.8897
20.9448
26.3926
32.162
40.028
14.8047
21.2753
12.3962
10.882
17.7716
20.4457
36.9712
27.2131
33.0575
37.6561
16.3234
17.4715
11.3804
11.6577
18.7931
16.1639
20.2577
30.7102
30.6912
18.1811
19.9391
12.6195
10.1199
11.4896
20.2623
20.3821
29.7989
39.8819
19.7719
33.5688
9.97059
12.1107
19.7939
14.827
14.1077
20.18
13.2051
12.6501
18.6907
16.6178
12.942
9.77553
9.9302
9.8548
10.2787
21.8866
14.8027
16.4114
10.2812
48.7567
14.8874
12.6822
12.0808
54.1589
15.2716
12.0212
12.1198
16.5625
12.6987
10.5802
9.68186
12.6937
12.4134
13.9497
12.9582
10.3387
12.0727
18.848
13.0416
10.0107
9.89387
10.2389
11.9331
15.4979
11.4414
10.9615
12.7546
15.7129
12.2435
11.0538
11.8127
17.7673
12.6646
11.7359
10.5249
12.1289
21.1182
12.2117
10.0317
12.7292
17.8019
15.4659
11.5371
11.641
20.8325
13.6275
10.8365
10.068
10.1949
12.461
18.7626
13.2847
12.0956
22.3513
13.1564
12.6272
18.2219
18.1394
13.3778
10.389
10.1074
11.0802
18.4581
11.5317
10.2624
18.0867
12.0484
10.0998
9.71917
13.5294
16.4735
12.4238
10.2621
9.78455
9.99141
9.76418
10.0033
10.1166
9.95101
9.67512
9.62891
9.68971
9.81203
9.89604
9.62112
9.64505
9.75291
9.57804
9.65397
9.64628
10.0691
9.92262
9.89962
9.96488
9.59685
9.67087
9.64414
9.91775
9.96854
10.2773
9.82247
9.9316
9.64316
9.8494
9.79183
10.1515
9.84847
9.77413
9.81192
10.5115
10.1077
9.81267
9.58152
9.9264
9.59603
9.88864
9.72867
9.73516
9.85761
9.72098
9.63757
34.3379
34.3946
36.4151
40.8631
55.5635
38.5785
26.3385
38.1858
114.974
36.2771
63.4125
73.9801
39.5062
28.8063
46.0021
68.3566
37.0556
29.5466
32.5998
19.4588
30.9557
20.838
24.0877
35.162
27.5625
32.0508
70.9156
58.3656
15.0674
58.2256
60.0236
73.5568
36.9754
25.5818
36.4989
23.6085
59.414
14.6162
31.5699
14.827
398.043
48.8935
58.6416
54.3642
58.1606
44.0243
32.1394
62.3918
51.9835
37.6828
28.2441
62.0329
58.1932
39.3134
40.7809
273.858
24.722
71.1911
66.1174
34.5822
68.6816
69.4624
421.976
70.1214
58.3866
73.8177
74.4473
29.0419
60.8898
38.8529
55.9413
26.7245
63.5156
78.3973
30.4914
39.9441
31.2079
300.496
34.4443
31.1166
76.8979
28.4694
79.2031
398.674
61.3972
121.917
56.9982
64.2765
84.5223
60.8136
129.854
234.206
75.9361
64.4774
86.3786
246.225
67.5087
241.805
34.0473
37.5296
32.9097
266.534
83.3937
90.2474
209.923
80.0772
100.887
63.2595
13.2838
59.0827
13.8732
78.5542
37.9834
101.155
70.0486
13.6425
36.2234
13.5855
61.0306
16.4638
54.7438
22.227
512.616
89.8325
43.8946
72.7406
85.3433
64.9612
29.1163
73.2146
196.935
91.0762
66.4612
38.9906
66.6928
317.167
89.146
71.3558
25.6815
30.4063
81.0092
991.121
67.2527
33.3328
31.4403
81.3125
64.1073
116.626
188.25
70.4964
34.5028
51.8294
73.2289
72.7197
884.078
264.377
26.5029
31.4326
65.5285
69.1097
109.557
85.3297
433.341
31.8556
30.0484
20.9993
27.2376
98.7525
30.7523
30.5584
97.8175
77.5968
23.088
22.7985
34.3599
119.754
80.408
28.0924
27.1221
33.9819
15.0397
10.7263
13.7947
28.4746
36.7537
37.2326
36.8977
14.7782
10.4925
14.3504
21.9248
40.4513
22.4132
42.6885
15.1679
10.5928
14.9523
24.7528
44.3942
25.0308
44.0565
99.6309
84.0054
86.5363
77.8278
42.5749
61.4958
83.7834
58.0709
91.6663
58.9298
62.2725
58.715
145.028
127.717
61.5328
66.5475
200.686
60.0601
114.573
135.714
39.9134
72.3523
47.7074
33.5951
37.978
209.955
54.0911
83.8862
28.2251
43.36
33.265
82.8836
28.2829
25.8087
79.5679
32.3469
79.3543
103.645
276.307
27.6639
877.855
32.033
75.3516
35.7554
59.9447
31.7664
230.002
63.3937
87.8921
36.7803
38.0864
285.733
49.3067
73.7023
39.7466
29.0623
32.6932
70.3938
31.3025
212.635
62.0082
39.6185
28.3533
41.5534
79.3964
300.632
33.3753
70.8431
16.6293
21.0582
55.4233
83.3561
16.8851
18.4098
52.0088
25.2289
68.6061
64.5136
21.088
58.4571
25.9914
106.267
180.328
54.8648
50.8799
137.274
37.97
86.0688
338.568
86.3815
65.1718
162.687
157.86
89.8906
105.321
93.9315
30.2349
47.9089
38.6014
33.7243
69.9813
31.3985
245.848
35.9042
38.3818
34.2224
34.0885
19.801
45.7794
60.0561
98.6472
31.5355
79.9291
41.1383
46.0238
123.496
109.787
487.395
144.348
295.862
122.928
103.158
34.3718
162.848
58.5715
38.9466
35.4758
32.5089
31.1393
192.032
53.9389
326.938
21.8222
50.4179
31.7643
86.5644
113.904
101.697
206.02
111.877
92.0516
99.6008
32.9374
224.461
74.7215
40.2591
35.8322
33.5847
32.7921
277.134
57.819
68.1929
61.0181
70.4872
37.3507
30.8338
46.6416
131.874
376.767
121.033
361.295
57.8232
62.1309
36.7926
442.666
56.6456
40.3282
35.7425
21.272
32.2009
574.534
31.2624
71.4478
23.239
25.3967
44.4171
31.182
64.621
14.8341
35.0249
29.4858
65.1362
79.5513
86.8583
47.2255
83.8863
70.6291
66.9809
48.2453
32.5316
37.048
26.7379
40.1016
76.3992
33.9886
36.0059
40.7817
37.0971
32.1134
46.9738
33.2717
22.6213
42.2923
10.498
14.7672
10.5535
14.5928
34.1499
23.5824
44.4738
10.6326
15.227
10.6345
15.1037
28.8936
52.7493
86.1349
61.6497
80.5678
51.7955
98.5651
86.3974
52.6392
65.3558
78.9519
86.0006
71.3651
57.4231
66.8104
87.352
57.0497
93.0716
106.274
54.6561
82.4753
51.9215
98.0967
63.5472
199.468
71.4938
82.5418
64.952
49.4733
65.3754
57.7867
385.089
81.6566
86.879
48.444
82.2772
81.29
72.0352
52.2749
82.8037
521.572
82.8596
86.0938
406.1
77.2421
188.703
77.0256
56.7294
54.9118
46.5435
49.9013
48.2586
46.4
226.712
60.5062
214.904
188.33
220.556
241.909
239.5
78.8133
199.793
148.728
200.275
151.407
63.2527
63.3814
77.0937
118.058
58.2019
49.6346
54.9238
58.9096
60.6156
107.535
73.4495
49.9924
75.1888
56.9589
53.6703
70.8292
63.785
71.6413
58.4353
234.1
71.4178
85.8167
88.1245
91.1415
72.4644
76.8524
66.1157
83.0154
62.3191
308.489
79.7353
77.0525
231.803
55.4029
56.5624
266.276
56.334
179.748
76.335
53.2593
224.116
51.5404
127.627
181.389
168.705
171.217
82.4996
144.743
127.772
152.306
133.618
443.755
746.967
143.217
144.655
65.1593
440.151
118.147
115.788
123.936
126.735
61.0005
45.7652
215.533
65.378
53.3612
64.5954
53.1184
44.6375
127.647
54.6031
77.65
233.917
54.9191
397.546
135.436
136.22
310.585
55.7673
59.6418
194.825
155.126
928.738
267.34
126.885
108.214
63.0403
373.575
73.5902
187.664
129.678
68.5839
56.4537
109.848
57.9939
164.43
144.42
126.008
82.6976
56.1
104.849
56.5125
101.56
143.409
181.92
478.947
126.002
135.216
640.23
166.477
78.9679
111.52
91.8897
123.212
107.51
178.951
122.515
267.522
168.956
165.588
122.402
102.408
119.283
174.237
212.722
68.3457
54.9084
176.853
58.1347
144.491
168.622
213.493
88.6411
56.8772
114.009
58.2985
163.581
167.972
394.659
123.069
107.633
300.164
99.091
172.09
398.696
70.6213
98.349
215.894
90.8664
197.004
397.637
329.022
274.927
172.486
409.209
156.22
226.903
218.828
60.6712
149.011
106.501
195.458
81.1472
114.456
187.578
60.6946
63.2294
183.919
169.925
86.9001
58.6592
186.048
52.3292
75.391
157.84
174.298
77.2345
50.5781
186.532
94.5547
92.375
97.0198
91.5433
93.6136
96.4032
90.1419
92.7339
19.7359
75.8562
22.0886
83.0678
19.1963
81.1897
19.5563
50.0757
76.8089
18.9127
80.1176
49.7895
17.5095
76.1044
18.7912
17.8479
80.2409
92.9845
115.932
70.7301
68.6358
105.517
95.7052
92.123
114.332
280.009
68.4934
91.2594
125.482
103.161
430.356
125.143
114.335
124.876
224.807
50.2705
45.2326
278.043
102.251
186.01
244.756
76.9383
46.5254
79.0167
238.033
96.8178
119.336
53.9561
168.397
69.6159
51.6009
90.9564
379.563
398.568
69.6786
133.461
90.0769
103.417
143.16
71.492
519.218
47.6667
81.8246
127.269
100.365
108.839
159.454
81.9839
119.325
1385.38
96.0193
72.5518
101.793
73.1656
42.167
84.5608
64.7198
78.6534
42.5849
81.1675
47.7805
57.3068
69.6488
155.086
53.4719
74.777
83.1846
162.276
131.765
155.138
131.07
93.8138
116.292
304.448
157.74
87.1718
344.647
108.262
89.4815
122.863
99.696
157.56
107.32
271.041
103.051
104.406
93.2135
68.9468
60.2605
68.7529
104.066
72.892
57.9116
127.183
213.701
110.932
99.1018
245.066
125.895
205.06
146.989
122.178
227.717
109.912
115.954
69.2024
59.7541
75.6409
166.041
64.1876
44.721
355.236
374.358
69.2865
360.698
62.7482
39.5949
46.0291
190.254
253.752
56.8482
356.802
69.1808
42.2156
93.9713
76.0477
92.5245
64.8198
54.7303
76.8966
61.0675
95.629
89.9943
91.602
84.7377
82.8396
58.9673
73.2904
61.9239
51.7661
144.248
75.6702
84.7465
61.4143
51.5391
204.74
79.7817
86.1449
66.3379
45.1999
91.0674
68.066
59.6067
57.684
134.62
90.2654
78.7614
75.8397
52.6145
17.9326
28.0829
17.5218
21.291
29.3474
67.9908
31.8863
43.2809
23.6939
24.5146
62.0682
35.1401
37.3324
14.9221
11.9772
14.278
29.7468
34.0486
21.068
29.1046
16.8648
10.8069
17.0668
39.5664
27.5521
25.4448
38.59
14.275
10.7344
14.4035
23.3418
40.8213
38.1331
41.6387
16.0128
10.7369
15.1851
41.6662
37.4598
28.4933
29.3355
15.1679
11.284
15.7418
26.657
45.1778
40.8017
41.6599
16.2952
11.4558
17.6579
27.0976
32.6854
38.5983
25.9926
144.477
107.062
107.978
87.0177
22.3163
33.2873
34.1482
28.0368
23.9015
30.6997
29.7617
35.0722
65.3439
22.7786
67.5957
29.7844
54.888
37.8039
115.173
57.1893
66.0711
224.853
58.6476
395.207
74.8217
23.8776
41.0976
37.0576
35.113
23.713
32.3502
31.4117
56.7022
108.053
144.302
82.3383
52.7195
58.7082
79.547
218.346
60.3742
67.9582
106.802
60.2742
84.6047
134.14
82.9582
28.3987
42.4714
32.0546
396.164
29.3525
35.6303
55.8557
151.71
161.651
101.041
69.2037
60.0193
101.026
62.0954
59.2676
69.9131
108.418
56.0991
69.5489
88.9226
39.4583
13.2678
22.7864
24.8861
70.1988
17.0003
46.1309
42.5206
30.2191
41.1552
306.37
79.2594
80.7383
187.842
99.9036
539.287
83.8657
85.7948
123.568
110.457
301.83
129.909
132.139
98.3347
152.213
60.2891
87.5962
200.955
41.6334
11.1035
16.3292
32.6349
35.6993
11.3976
15.9923
60.5545
62.9776
161.751
81.5123
56.3767
80.852
195.342
186.114
179.089
141.712
661.075
68.9116
28.225
32.7227
31.803
27.4175
27.335
41.3766
359.314
77.078
87.933
81.922
63.9237
92.9767
74.786
223.414
142.728
116.451
242.997
153.157
132.831
264.838
28.4827
40.1524
34.8978
50.9197
26.7589
43.4245
96.94
191.363
51.1069
84.0524
100.707
83.9142
147.803
162.339
327.369
167.877
121.54
187.075
324.131
65.0356
19.1048
42.3997
35.4341
31.7399
18.2237
46.5907
256.184
76.7339
42.5458
70.8045
65.7247
68.7113
54.2325
74.1017
80.1416
172.822
19.9757
28.8066
20.4233
32.4264
59.5571
16.1637
71.2431
25.9363
31.6526
36.0971
27.4935
20.427
120.949
137.945
77.6259
87.2768
63.4295
57.7278
59.189
27.1227
24.5845
27.4672
31.2364
19.6454
31.0589
20.6644
91.8758
87.9912
67.1654
60.3254
67.2824
34.0865
37.7262
33.0194
33.4498
30.3184
30.5662
38.2548
32.808
25.7756
31.6175
27.0664
37.3145
16.5821
16.0419
12.3305
13.5604
37.8518
35.9239
35.288
11.4285
14.1356
11.4437
14.337
36.6635
37.1031
39.1652
10.7303
14.3053
10.9199
14.3422
43.4899
35.937
32.9357
10.8941
15.1721
11.6143
15.2835
33.9416
30.3478
29.559
10.6485
15.4245
10.8212
14.925
25.2128
35.5464
34.9617
11.6836
13.7121
10.8909
14.7316
32.6513
40.7328
35.9297
14.8059
10.8541
14.9383
94.4259
64.7277
96.9217
74.5413
66.6656
74.28
42.5738
64.5436
65.694
56.1101
61.8712
59.0295
46.3479
161.167
75.0996
88.6499
158.265
114.246
160.215
158.4
46.036
20.6349
15.1984
115.3
160.768
78.1955
158.238
86.3788
160.45
116.889
160.836
132.682
31.6706
62.5509
111.166
44.8842
93.1642
140.252
14.4619
46.1427
20.2136
55.4731
15.2198
42.0389
16.6216
14.6285
44.3914
54.7364
20.5993
39.4583
22.571
14.2534
122.031
214.033
140.528
104.563
253.786
110.911
110.905
64.9871
52.23
52.3333
39.2153
131.994
199.556
82.7739
62.5879
60.9172
56.5808
170.125
134.24
70.6011
47.945
55.0577
163.599
54.4008
187.731
51.0863
120.998
164.556
54.8929
66.2113
39.034
129.77
40.3859
135.427
49.2257
47.1371
56.1675
82.3342
40.147
56.5021
77.2125
78.7295
79.7114
197.808
81.3755
77.1114
79.2793
84.3928
59.6482
103.229
169.565
102.583
144.691
76.25
630.572
73.3242
70.9088
71.5005
62.8066
90.338
71.311
305.919
250.611
255.251
129.339
121.329
58.5909
76.8543
78.5189
52.3616
137.052
127.206
312.839
234.9
59.0296
69.5807
57.121
190.005
65.8279
116.736
103.129
109.496
247.443
192.121
135.111
166.24
158.635
109.58
78.7226
43.0803
102.457
57.3724
176.763
71.6167
228.546
247.521
114.278
286.347
103.03
112.182
49.3069
48.2332
60.616
56.9821
71.5884
147.387
134.138
140.195
87.2461
78.1655
139.718
120.681
55.7147
74.0068
78.0068
57.988
100.29
92.7321
208.946
214.022
165.564
1025.89
164.737
167.789
411.939
214.811
55.0111
91.0204
70.9341
60.7646
78.1916
167.887
413.392
157.069
676.836
160.309
206.742
181.064
350.977
264.31
104.884
156.57
158.013
290.074
109.29
148.806
210.878
54.8425
70.4656
98.7909
150.643
64.393
78.4416
187.638
76.1274
101.092
190.143
183.135
95.9786
75.847
187.262
160.378
90.4858
158
90.4386
158.569
117.098
158.129
158.917
115.691
95.5832
199.851
104.312
149.42
224.371
159.96
158.053
82.8885
90.549
116.482
161
158.263
145.607
70.5235
113.281
42.689
142.436
70.5914
121.793
122.324
112.833
198.164
96.879
146.396
94.913
165.42
13.1902
52.1342
20.8968
39.3341
13.8045
49.9501
14.7599
15.4046
78.8376
16.5972
63.6564
17.5485
53.7497
17.713
14.1215
40.6171
64.4618
20.2531
50.7073
14.7791
20.5798
121.33
151.644
376.759
230.53
265.258
107.967
94.276
135.247
269.645
146.827
139.722
62.4571
58.9084
84.1559
60.1868
285.018
216.294
100.071
73.6102
80.2
121.36
247.365
73.1694
56.9641
62.8087
58.0847
108.368
85.0907
87.1546
60.4554
28.4698
66.2785
61.1496
110.858
60.3057
918.707
126.02
82.9002
85.896
99.9832
69.0403
95.8328
63.6496
124.746
62.1316
61.3692
90.9216
51.9455
82.2897
43.4854
63.0163
65.5507
67.1805
103.287
57.6421
94.7121
63.3867
40.679
81.7838
65.1454
48.0304
56.003
68.2048
45.9475
544.184
66.5366
75.9448
116.98
82.1258
69.5879
48.3296
82.1005
60.9984
76.2914
90.6788
70.4712
47.9467
173.201
139.291
121.948
69.0088
93.1009
105.485
113.489
110.11
106.261
111.507
173.018
291.995
180.266
138.176
299.976
112.021
87.7927
63.3497
59.6904
77.9352
88.4997
61.4563
110.958
59.9874
49.8871
61.9507
66.9495
65.9517
60.061
121.459
112.167
74.998
55.4478
101.964
87.976
59.4844
127.483
92.7422
90.1856
70.7524
223.939
100.698
89.8004
1082.48
414.605
86.2462
491.526
266.386
148.072
272.371
250.354
157.166
225.064
100.329
112.768
67.8992
62.4716
92.4702
101.098
60.9504
101.382
86.9295
76.2952
57.8471
82.6022
101.718
61.6929
114.065
94.1666
174.447
71.2201
77.4868
98.7282
104.328
134.852
618.847
264.969
268.145
174.48
150.725
280.176
98.4914
81.5144
33.916
59.9669
72.2316
72.5526
69.7103
111.579
115.139
77.9678
58.0396
98.7446
163.511
61.807
50.0307
123.186
178.073
73.2523
358.156
61.8987
81.0053
106.585
93.2092
99.753
75.5035
96.6566
92.8188
252.649
145.248
228.975
360.037
142.578
146.331
121.444
365.732
46.2002
90.6204
30.3352
25.8653
58.4932
60.4357
24.2603
44.1446
71.5898
23.0878
20.9668
64.2078
43.8783
22.1332
48.5818
57.544
29.6571
15.8633
63.8887
45.0564
16.18
63.5453
27.632
51.2295
57.204
140.422
55.4437
90.0305
67.2677
63.4025
66.2785
124.281
126.138
103.409
308.529
54.8334
76.5351
116.998
59.6383
413.967
58.1982
51.3709
51.4287
43.2547
34.7451
60.6037
67.1121
26.4849
50.6567
69.8222
23.0431
25.7193
59.486
66.3288
21.8735
119.261
126.237
104.875
439.047
77.9763
101.387
87.8983
72.64
46.7265
53.5955
64.9059
18.2659
28.2744
54.3269
70.7204
15.9853
283.574
123.856
95.9062
274.167
92.2418
92.247
322.378
177.496
237.002
153.983
97.8302
147.65
107.499
92.2903
100.076
103.872
116.374
109.349
91.8493
105.098
94.2892
199.313
98.7385
100.911
104.317
95.9067
98.5245
108.278
73.2073
90.0851
339.174
579.988
91.3994
79.9889
75.4579
86.125
75.9161
87.0955
73.4375
239.897
90.592
650.721
75.0072
93.6003
76.3649
103.943
88.9534
84.9725
79.8183
92.0455
114.698
129.915
91.2772
80.5095
128.501
81.7595
107.598
114.033
141.09
84.758
107.228
128.429
82.3156
127.51
98.9199
146.326
110.462
83.8918
125.737
69.1269
63.2334
105.408
89.9494
78.552
63.978
52.6236
120.025
91.4785
97.0072
105.136
90.565
60.0735
58.7376
57.2062
79.632
71.8486
38.2782
30.6437
31.2428
35.9129
96.3253
59.9273
69.4451
38.7321
59.2076
71.6075
44.1985
55.9886
76.7236
107.2
145.534
121.946
89.7458
54.7696
78.7989
150.488
118.567
85.4592
49.0461
56.5669
64.8984
104.973
186.805
89.1185
57.7725
70.9292
91.161
125.697
308.951
183.106
165.956
97.001
102.589
230.443
291.444
162.924
93.2258
42.7411
63.4641
86.0911
79.6655
54.65
108.967
159.643
66.0683
75.1824
66.9614
61.4908
186.924
181.83
77.619
46.8375
46.6387
75.0886
141.033
211.132
93.3921
195.976
78.9874
88.4964
89.6601
57.395
87.2111
110.471
157.449
105.239
102.536
58.4784
290.047
104.36
73.8329
87.1456
107.15
149.727
199.696
111.992
105.871
108.114
93.3472
52.9985
67.4605
57.3507
75.5744
57.7184
87.4398
77.2687
183.945
82.0194
95.7411
55.3289
60.5239
87.4001
65.3326
148.241
73.4265
51.8434
134.703
66.6016
76.8413
64.7459
116.31
59.2834
66.6125
66.0457
39.4997
66.6574
81.1637
148.103
52.6513
57.5647
123.049
83.6381
67.6433
275.27
344.821
207.701
144.583
81.3873
71.6813
40.2321
81.703
58.1464
84.1205
75.7671
271.821
120.989
79.5897
72.9797
250.341
93.8742
316.902
79.0324
84.0365
85.5554
151.247
227.705
141.177
443.016
102.37
86.873
126.177
90.9909
99.2025
75.5043
292.272
109.368
117.302
130.168
131.008
107.613
118.725
132.918
133.685
89.0047
193.066
187.228
149.096
111.802
147.804
115.377
151.229
504.442
105.929
97.1989
129.545
187.072
105.945
165.961
559.147
186.911
70.6274
96.9467
91.0008
99.5765
404.227
110.52
166.642
180.202
143.818
342.411
209.813
105.835
85.5557
84.3779
153.921
111.936
114.39
99.1199
153.148
66.4973
104.727
101.884
70.3125
137.891
203.124
91.6694
93.8134
60.9483
62.6182
96.2604
150.21
95.3046
63.2689
70.8911
102.88
56.0297
82.6415
83.2246
93.6116
61.4318
43.2566
216.231
247.842
1738.74
276.923
215.449
136.926
117.616
150.469
127.273
198.363
258.622
157.615
147.233
324.89
103.151
109.845
119.606
88.5582
87.4612
110.406
83.9937
81.5495
67.7203
57.7736
153.679
204.368
105.539
94.994
95.1851
81.7852
95.2849
207.258
92.247
93.4512
79.3448
47.995
88.9765
65.2193
79.2974
53.0991
43.8115
68.3684
68.7106
50.7044
24.5978
205.324
208.971
98.5889
99.5175
145.169
448.864
97.6912
268.07
163.491
160.656
205.783
234.901
107.303
107.673
151.879
100.028
230.105
251.147
162.979
163.305
150.871
255.89
94.2714
104.328
814.129
93.1552
180.324
109.012
125.519
106.367
62.7914
74.9295
89.5092
371.45
139.347
183.966
63.0128
45.0385
102.33
329.553
71.7545
57.0855
49.726
59.6838
90.7517
49.5734
77.2824
59.991
135.601
56.3164
56.6818
73.9307
69.7656
104.68
114.508
49.1586
37.6286
109.395
101.625
42.687
143.841
156.34
228.951
102.877
111.631
323.814
144.887
149.912
363.598
358.832
124.696
173.939
345.409
129.015
112.413
153.668
89.9884
96.7233
104.823
140.778
71.3716
146.306
150.054
251.037
361.192
342.57
143.87
130.259
108.056
46.3933
99.6371
74.0301
127.376
99.0264
55.0209
165.985
68.1599
82.6935
68.3365
131.059
80.8406
68.8488
351.364
52.7747
43.8856
61.3588
175.28
73.726
47.4589
58.4036
24.6937
50.1918
24.6464
43.315
26.9948
27.2984
129.328
94.352
66.7561
79.1812
99.1589
117.763
79.6538
136.09
138.623
424.495
295.189
93.4095
104.709
85.0835
108.998
120.046
183.949
153.438
78.9663
121.155
85.0649
458.117
105.622
80.1154
208.017
70.3841
490.78
98.9424
129.03
75.4169
86.1396
74.4032
99.8835
83.412
298.818
95.9685
174.058
116.276
84.553
288.381
111.697
107.871
59.9182
65.9918
77.0487
47.6281
52.0507
47.7503
121.457
60.8092
55.2684
72.6529
62.9598
62.2849
43.5128
93.4193
82.0867
50.2931
65.0354
60.9081
23.0429
33.0156
149.222
79.8179
69.1043
133.801
132.544
115.472
154.952
169.231
154.015
115.765
228.764
149.42
295.155
108.687
121.118
115.003
132.826
459.929
130.193
105.037
91.1115
138.13
118.909
195.788
267.583
94.031
129.571
204.103
172.517
350.167
106.511
227.43
143.547
105.835
198.23
125.162
91.1612
131.429
108.92
184.329
123.102
86.5413
121.949
158.467
280.503
151.634
78.9972
134.147
71.7774
155.847
133.826
113.083
157.268
90.1578
89.2884
144.667
167.279
125.662
162.636
169.936
167.604
138.849
122.16
67.0327
86.5949
129.401
149.707
106.59
518.093
147.313
148.551
145.14
180.237
139.285
70.0785
68.1528
120.267
145.949
76.5336
145.918
133.05
138.093
117.551
154.112
136.968
131.431
52.886
72.1838
121.099
147.369
68.8054
121.676
108.741
123.851
112.439
154.123
230.837
159.914
411.909
256.575
99.0064
85.0362
93.624
128.738
125.595
454.481
416.224
86.8274
144.02
147.635
118.917
235.57
81.2153
178.789
81.6753
285.877
79.3021
118.542
80.0461
207.218
81.5951
516.291
74.9149
80.0952
321.147
85.6422
89.0372
47.2521
76.3005
47.5499
81.9666
110.025
85.6547
419.782
149.978
140.62
83.3385
106.224
85.5856
95.0708
121.713
109.274
88.5821
425.651
93.0018
279.193
83.0953
224.682
85.3543
82.5146
97.2335
128.431
80.0634
78.545
195.196
83.3882
1041.27
240.336
122.118
200.63
94.2188
108.155
107.864
1386.9
284.762
116.1
83.7235
102.858
284.699
120.045
235.068
118.079
86.9635
81.4566
101.758
98.7037
95.8934
95.2222
92.2747
91.6848
97.6486
92.7226
97.4263
92.1971
95.5868
93.3717
91.3852
91.1245
98.1756
93.7601
98.386
93.4086
84.0266
93.6271
87.3094
88.6724
82.9326
85.8544
91.0183
79.7271
86.8258
98.385
90.0804
95.8718
83.872
89.6458
89.7346
80.8288
362.406
288.945
458.767
262.784
285.383
333.767
181.984
367.084
210.586
232.024
154.146
124.546
622.599
108.166
242.605
137.095
154.514
112.935
153.26
95.0765
151.893
175.094
243.401
110.654
112.132
168.22
267.627
172.313
152.83
164.274
197.725
116.416
166.82
319.697
234.579
161.18
138.85
139.571
136.941
172.373
108.988
123.384
124.366
151.358
95.3482
98.3123
108.501
105.472
148.41
81.1894
225.176
118.914
139.05
127.296
163.615
101.156
119.969
110.342
470.774
118.024
158.957
95.5189
221.764
69.7979
163.175
81.6371
79.3189
76.2451
79.6521
60.187
63.9733
80.1073
155.355
97.0136
83.8002
144.803
108.189
104.907
111.506
107.584
95.7031
85.4604
87.0103
79.4818
101.266
92.4901
109.242
81.6149
103.218
105.68
90.0846
107.112
87.9023
105.105
112.679
107.238
89.4945
430.834
90.4917
106.129
105.997
516.382
103.57
126.312
162.389
251.441
249.063
208.538
81.2536
127.041
179.026
127.735
120.928
175.934
83.1858
178.667
128.77
180.582
162.938
65.7682
113.782
102.734
259.511
62.4362
114.582
111.761
65.811
257.377
128.214
114.42
113.614
100.627
64.4039
110.011
874.631
138.921
258.875
119.81
782.142
124.007
232.005
114.609
72.7359
115.819
100.744
99.7565
479.61
232.631
99.7426
109.126
75.9417
386.187
113.479
102.429
149.974
131.644
99.8731
92.8774
396.957
176.019
83.8525
97.8545
201.335
95.8929
105.925
407.364
88.2868
108.555
206.96
94.7243
104.491
378.278
87.2673
106.579
217.367
103.175
176.356
98.8036
386.72
87.5835
97.8361
197.324
76.6796
95.4355
175.708
169.101
76.3816
91.5889
306.567
75.4304
107.297
141.043
171.15
304.609
113.664
86.3825
75.1941
170.438
102.089
175.493
90.2374
319.806
89.5643
808.376
122.115
660.456
303.562
129.941
126.668
387.781
260.677
156.551
278.971
193.037
107.673
101.462
96.325
391.283
76.7183
143.969
138.247
111.269
250.944
111.489
107.196
89.5113
146.825
138.123
117.893
476.991
335.179
277.036
217.233
152.996
344.586
1027.64
203.141
274.144
264.012
105.291
305.461
215.043
184.739
248.176
179.85
114.893
186.847
204.331
413.022
119.358
174.739
142.997
194.989
130.17
163.972
90.9782
92.771
311.729
201.414
98.2055
80.356
331.316
90.6447
104.738
176.205
148.854
100.432
88.7665
163.808
94.5835
336.023
103.888
179.186
100.933
93.266
164.396
88.0693
202.437
98.1262
160.739
101.319
79.9628
151.772
228.957
89.2773
215.958
179.3
91.3353
233.461
249.006
107.176
191.871
106.218
331.239
246.44
219.839
180.461
87.5494
255.402
89.2882
340.771
289.028
356.326
245.504
154.938
307.872
98.615
198.388
127.642
92.242
173.575
148.818
286.64
94.7861
94.1057
118.662
162.501
175.26
222.486
335.565
400.615
132.302
160.951
175.748
87.3904
149.764
79.6058
82.2042
93.7724
137.783
116.585
81.2756
87.5212
142.126
86.4069
88.8932
161.906
136.042
78.7815
112.555
152.702
93.504
143.742
97.6309
167.535
82.4701
109.496
148.501
88.9721
126.483
94.8132
139.176
80.6397
94.6956
145.944
86.9991
97.7338
114.552
108.938
89.194
85.2007
107.49
88.6815
95.4851
108.106
118.443
94.8564
86.6484
107.673
85.0571
119.523
92.663
125.628
84.9805
88.0088
112.202
138.484
342.275
262.856
176.712
146.727
1890.07
286.655
184.785
179.79
99.3
175.546
156.819
139.577
152.896
164.97
109.918
252.919
160.103
162.724
342.954
311.424
188.54
171.65
116.565
147.973
137.739
121.125
165.813
151.186
102.286
166.604
144.081
142.955
131.795
111.609
334.652
167.14
196.916
173.961
283.477
183.367
209.226
324.262
247.207
224.062
180.428
186.319
184.517
140.269
160.481
126.948
162.914
127.645
153.777
167.136
127.911
144.652
98.3345
143.533
142.392
128.069
334.845
974.031
135.152
131.095
112.178
156.445
124.225
152.034
171.319
160.16
132.779
151.829
140.336
454.293
77.5216
89.6689
245.129
352.054
79.9348
90.3199
200.813
82.0956
103.589
215.146
120.348
109.774
78.8349
198.165
82.1832
249.659
110.153
211.132
110.626
83.1445
203.881
76.7874
135.787
87.3773
138.981
76.1793
88.8488
195.014
98.6153
95.6202
201.016
134.212
94.4307
96.0165
133.737
91.2396
106.689
134.149
154.057
105.565
86.2417
143.393
96.0321
202.147
107.445
135.527
107.093
91.5422
142.009
93.2641
149.985
87.2749
141.395
86.0775
97.3809
148.126
384.174
165.163
371.823
141.195
182.998
406.094
121.924
148.569
166.36
133.95
302.913
140.445
101.962
165.735
140.288
196.975
155.536
463.103
216.968
306.312
137.108
117.489
102.354
143.512
134.176
151.32
353.749
150.311
139.396
400.021
190.115
214.353
186.511
119.81
161.445
295.509
142.814
128.025
108.795
83.3173
92.3206
156.751
79.8868
137.43
112.245
110.683
118.374
152.02
99.271
126.401
106.347
131.506
81.1089
92.2941
78.622
111.955
131.296
113.592
270.848
122.856
155.02
100.943
134.003
113.942
177.705
131.976
121.92
375.057
2211.64
330.929
272.85
323.284
371.442
265.632
327.281
328.803
351.297
216.421
195.521
803.373
223.263
774.972
344.423
170.173
210.258
290.88
205.928
162.592
206.957
790.049
128.389
193.138
123.174
148.989
125.907
174.57
126.495
90.5192
142.078
65.6828
187.219
90.2001
203.3
73.9369
100.417
276.599
94.3542
179.411
134.365
207.571
78.744
125.013
90.8429
147.895
110.488
165.877
121.639
87.3285
86.7356
69.8213
186.562
179.474
201.28
70.7089
71.9954
68.76
99.5058
89.6634
173.541
79.7513
71.6302
160.522
71.6355
101.32
87.1757
176.673
76.5016
81.1428
166.856
67.9546
72.6512
174.522
177.614
68.2882
78.9658
163.279
76.7795
181.736
88.7325
177.487
76.3386
84.4082
185.447
76.4184
77.3359
185.649
178.526
77.3647
82.5143
186.985
161.129
97.0163
160.286
124.095
159.039
160.825
137.302
160.936
94.934
125.196
161.082
160.484
137.319
158.65
161.019
159.204
109.337
116.046
160.203
159.064
128.162
103.91
308.488
161.888
158.547
103.95
160.983
623.45
162.277
109.6
122.989
161.779
160.48
117.07
160.233
160.596
97.9986
101.616
298.222
162.058
103.666
211.293
298.554
267.271
162.35
158.563
112.166
102.844
157.748
161.292
110.97
572.739
282.559
161.242
82.8125
149.557
123.989
136.129
163.092
155.584
160.386
96.8288
161.409
128.384
135.201
158.946
159.729
160.67
160.588
122.167
119.06
130.947
158.177
155.261
177.525
180.276
146.288
67.5313
128.601
111.753
147.023
143.441
72.98
159.562
136.064
153.632