/*--------------------------------*- C++ -*----------------------------------*\
  =========                 |
  \\      /  F ield         | OpenFOAM: The Open Source CFD Toolbox
   \\    /   O peration     | Website:  https://openfoam.org
    \\  /    A nd           | Version:  10
     \\/     M anipulation  |
\*---------------------------------------------------------------------------*/
FoamFile
{
    format      ascii;
    class       volVectorField;
    location    "0.1";
    object      U;
}
// * * * * * * * * * * * * * * * * * * * * * * * * * * * * * * * * * * * * * //

dimensions      [0 1 -1 0 0 0 0];

internalField   nonuniform List<vector> 
114940
(
(-0.219488 0.019151 -0.0393495)
(0.234407 0.0242487 0.0517069)
(-0.239613 0.161573 -0.00098255)
(0.266109 -0.028933 0.0285232)
(0.11393 0.159691 -0.0578439)
(0.0985733 -0.0376541 0.0799727)
(0.0160669 0.0375971 -0.0950838)
(0.193563 0.07934 -0.0487813)
(-0.137851 -0.00903692 0.0103683)
(0.0603837 0.132321 0.0306004)
(0.0662584 -0.0128084 -0.0252812)
(0.159435 0.0343486 0.0482914)
(-0.00200343 0.00420087 -0.0998377)
(0.238788 0.0769073 0.137031)
(-0.1541 0.00309329 -0.167282)
(0.123727 0.0223896 0.0825455)
(0.0836891 0.0746143 -0.0394155)
(0.139258 0.0219201 0.0609546)
(0.0423729 0.0355599 -0.101361)
(0.201484 0.0781947 0.142121)
(-0.0260554 0.0116209 -0.162404)
(0.0888955 0.0594891 0.130571)
(0.103692 0.03597 0.0169665)
(0.133491 0.0609959 0.0498466)
(0.0607226 0.0306214 -0.0864415)
(0.202549 0.0718542 0.123281)
(-0.00671522 0.0185749 -0.157116)
(0.128965 0.00123258 -0.0419048)
(0.070556 0.0508973 0.105828)
(0.166044 0.0580233 0.0718197)
(0.0704974 0.0522035 -0.0596461)
(0.212862 0.0811148 0.119011)
(-0.0271118 0.0156909 -0.183976)
(0.364077 0.0795363 0.00806706)
(-0.251554 -7.97744e-05 -0.0022746)
(-0.0141525 0.0447585 0.423013)
(-0.00483762 0.144002 0.45082)
(-0.352168 0.0379765 -0.0939732)
(0.388763 0.0850265 -0.00127375)
(-0.199646 -0.0393202 -0.00498152)
(0.00129369 0.0696761 0.449714)
(0.0348587 0.0004159 0.391341)
(-0.176652 0.0628001 -0.0464947)
(0.261673 0.00587302 -0.0576544)
(-0.233342 0.0108005 -0.00600103)
(0.0998207 0.0288018 0.291981)
(0.0466152 -0.0724015 0.428723)
(0.0959562 0.469971 0.183551)
(-0.0235883 0.149628 0.138354)
(-0.179095 -0.107804 -0.151094)
(-0.0325624 -0.029753 0.374379)
(0.0605965 -0.04455 0.321453)
(0.0656103 0.000933079 0.377677)
(0.129928 0.0785395 0.268923)
(-0.0149284 0.553314 0.393383)
(-0.296836 -0.150894 -0.154876)
(-0.17984 0.053147 -0.0115756)
(0.369137 -0.02577 0.353204)
(0.088711 0.000123728 0.259688)
(0.0599299 0.0116666 0.366049)
(0.121305 0.0485944 0.244453)
(0.0775673 0.0846077 0.431774)
(0.216495 0.353409 0.0700377)
(-0.010927 -0.0231377 0.24502)
(-0.16528 0.0209477 0.0187568)
(0.404409 0.0272511 0.267576)
(0.0644509 0.0227223 0.324512)
(0.133272 0.0220483 0.227248)
(0.0802826 0.0772505 0.397978)
(0.303121 0.00564017 0.130211)
(-0.00603069 0.289457 0.243495)
(0.238345 -0.125011 0.13436)
(-0.196085 0.12763 -0.036423)
(0.389454 0.0267252 0.310186)
(0.221059 -0.0261031 0.187835)
(0.0654216 0.00885029 0.373042)
(-0.233307 0.100452 -0.151959)
(0.401844 0.23481 0.229668)
(-0.133521 -0.0381959 -0.273225)
(0.169101 0.0280397 0.0449138)
(0.0990446 0.0784605 -0.0576657)
(0.235363 0.0189041 0.0558071)
(-0.0297372 0.153094 -0.151932)
(0.353143 0.111847 0.221134)
(-0.0671961 0.00939153 -0.306165)
(0.122818 -0.0167865 -0.00897245)
(0.0921835 0.0629982 0.0844736)
(0.197913 0.0529948 0.110405)
(0.0480569 0.0726296 -0.108939)
(0.328777 0.118715 0.179578)
(-0.0198772 0.0213785 -0.215289)
(0.107346 0.0277302 -0.0690445)
(0.181294 0.0420464 0.176696)
(0.0921596 0.0566487 -0.0746904)
(0.316563 0.11213 0.149317)
(-0.0701393 -0.00950474 -0.187126)
(0.350402 0.0481797 -0.0276933)
(-0.229258 -0.00549344 0.00170236)
(0.0923367 0.0263649 0.408367)
(0.0856951 0.0417625 0.124286)
(-0.153817 0.0488478 -0.00650532)
(0.288479 -0.0163384 -0.100725)
(-0.21309 0.0152004 0.0424741)
(-0.00960139 -0.0426847 0.41023)
(0.0176191 0.00949966 0.471874)
(0.0908549 -4.18596e-05 0.079491)
(0.0843934 0.423073 0.341083)
(0.0132221 0.208509 0.050427)
(-0.173745 -0.164458 -0.122464)
(0.0312104 -0.0642171 0.500526)
(0.0381364 0.0195876 0.436758)
(0.137597 0.00875037 0.310562)
(0.115012 0.130022 0.0519543)
(-0.0530808 0.55445 0.474331)
(-0.287216 -0.16695 -0.224315)
(0.0453273 -0.127986 0.391916)
(0.0505602 -0.0547642 0.409427)
(0.0808286 0.0210048 0.369966)
(0.07515 0.104163 0.299009)
(0.0617519 0.189741 0.176155)
(0.12655 0.287444 0.243015)
(0.0856107 0.333133 0.192165)
(0.380097 -0.00826327 0.310253)
(0.0942144 -0.069529 0.145083)
(0.137251 -0.0121037 0.454514)
(0.0833327 0.0251102 0.425343)
(0.102585 0.0662171 0.361539)
(0.0890604 0.123232 0.375945)
(0.115099 0.144265 -0.0194169)
(-0.184233 0.629567 0.583189)
(-0.449107 -0.188018 -0.25784)
(-0.0910931 -0.0619387 0.167443)
(0.3286 -0.0337671 0.295479)
(0.110925 -0.0221537 0.124414)
(0.148638 0.00625859 0.479457)
(0.119488 0.0305439 0.410762)
(0.0787472 0.0759329 0.414932)
(0.0568745 0.170522 0.130482)
(-0.057267 0.256695 0.645797)
(-0.36052 -0.0670432 -0.354149)
(-0.0780772 -0.100416 0.16155)
(0.378302 0.0381809 0.252461)
(0.10985 -0.0170868 0.14956)
(0.252673 -0.022875 0.451794)
(-0.0567034 0.0702468 0.226518)
(0.0232587 0.115902 0.304757)
(0.14663 0.112525 0.498558)
(0.324829 0.307748 -0.0875646)
(0.154035 0.154623 0.338931)
(-0.154964 0.025184 0.0646473)
(0.372383 -0.0021982 0.306669)
(0.237633 -0.0281277 0.183145)
(-0.0433719 -0.00690532 0.347926)
(0.0921111 0.0588574 0.192618)
(0.156742 0.0757233 0.482028)
(0.466213 0.129056 -0.00404562)
(0.237727 0.195076 0.369952)
(0.264194 -0.0241868 0.0893385)
(-0.1599 0.0875012 -0.0552629)
(0.358144 0.0171621 0.31759)
(0.126677 -0.0316723 0.178495)
(0.176314 0.0130535 0.372599)
(0.423395 -0.0146159 0.0547304)
(0.145253 0.276109 0.2874)
(0.26964 -0.0815736 0.0740896)
(-0.167187 0.0840161 -0.00659704)
(0.447032 0.0596685 0.143691)
(0.184283 0.0271064 0.339413)
(-0.243875 0.12594 -0.163131)
(0.602681 0.346511 -0.0144954)
(0.154663 0.0474965 -0.0365783)
(0.28464 0.00370469 0.0263139)
(-0.137125 0.0228765 0.00647088)
(0.30974 -0.0192956 0.0177018)
(-0.252624 0.0429751 -0.0109371)
(0.153802 0.00131732 0.108504)
(0.0408355 -0.041604 0.0158636)
(0.156545 0.370643 0.34828)
(0.00714687 0.217085 -0.127872)
(-0.184815 -0.154009 0.0815873)
(0.56323 -0.0282546 0.219319)
(0.13346 0.122523 0.0979412)
(0.09492 0.305477 0.188357)
(0.247948 0.02442 0.0789518)
(-0.0168878 0.559053 0.409254)
(-0.319138 -0.216029 -0.181134)
(0.222208 -0.0976061 0.0689021)
(0.245788 -0.0329999 0.226407)
(0.212004 -0.043604 0.0973426)
(0.100441 0.163856 0.0940609)
(0.0512892 0.301749 0.136643)
(0.121019 0.179614 0.100979)
(0.266621 0.190224 0.239484)
(0.0490506 0.359907 -0.134687)
(0.0226932 -0.210469 0.262622)
(0.0821406 -0.191605 0.298392)
(0.116687 -0.00697399 0.298998)
(0.104555 0.055331 0.210252)
(0.0486135 0.194797 0.0703107)
(0.169276 0.360775 0.138939)
(0.289638 0.00248937 0.0627133)
(-0.169983 0.714132 0.479309)
(-0.447439 -0.270898 -0.211055)
(0.108921 -0.114377 -0.0275606)
(-0.09019 -0.334137 0.233567)
(0.0136206 -0.15298 0.267517)
(0.0644694 0.00794288 0.381478)
(0.0739411 0.163457 0.301517)
(0.0327509 0.240407 0.135663)
(0.0893516 0.292847 0.155186)
(-0.0499342 0.347714 0.259614)
(-0.314953 -0.114742 0.0226655)
(-0.0102928 -0.00936148 0.0608238)
(0.373224 -0.116179 0.1338)
(0.0203488 -0.317845 0.21713)
(0.000719697 -0.130452 0.260908)
(0.12147 -0.00279567 0.351176)
(0.0826011 0.065737 0.301097)
(0.0979528 0.236524 0.316196)
(-0.0476496 0.0748257 0.110574)
(0.373328 0.252791 0.141756)
(0.214682 0.522956 -0.027416)
(-0.0555211 -0.0277296 0.00683233)
(0.409894 -0.0504889 0.117538)
(0.0474971 -0.283901 0.226831)
(0.0468438 -0.271398 0.253146)
(-0.0243266 -0.0476303 0.465702)
(0.0856159 0.101733 0.388488)
(0.0849149 0.331686 0.297736)
(0.362467 -9.25552e-05 -0.0932146)
(-0.2017 0.796188 0.536906)
(-0.115345 -0.00396961 -0.0202589)
(0.443142 -0.10498 0.133598)
(0.137715 -0.0601147 0.124837)
(0.054522 -0.234231 0.400776)
(0.0292823 0.0201661 0.400501)
(0.0923729 0.0871167 0.432888)
(0.14653 0.130763 0.130469)
(-0.166005 0.283349 0.75203)
(-0.126311 -0.00976899 0.16018)
(0.408861 0.0403688 0.248627)
(0.0916913 -0.00445121 0.0417291)
(0.108837 -0.237035 0.383753)
(0.0382417 -0.119966 0.47289)
(0.271889 0.146192 -0.0228985)
(-0.118142 0.0397434 0.712231)
(-0.159778 0.0352241 0.169617)
(0.417551 0.0195434 0.233006)
(0.256483 -0.073218 -0.033966)
(0.195926 -0.0766717 0.0922471)
(0.301183 0.0835926 0.236324)
(0.161136 -0.0132687 -0.10595)
(0.196862 -0.0315104 0.0159409)
(0.13588 0.0922255 -0.0350128)
(0.263768 -0.000876334 0.0304266)
(0.134102 0.128963 -0.0277519)
(-0.115889 0.0525079 0.0416219)
(0.300636 -0.0255471 -0.0758457)
(-0.251423 0.0528584 0.0717514)
(0.225465 -0.00509707 0.0253298)
(0.12329 -0.0903852 -0.011811)
(0.28331 0.445739 -0.0629238)
(-5.72828e-05 0.214736 0.0924454)
(-0.185577 -0.148408 -0.0315683)
(0.114379 -0.0496922 0.00100409)
(0.149693 0.338549 -0.10399)
(0.269273 0.089116 0.023812)
(0.0639756 0.621564 -0.0449182)
(-0.316519 -0.203056 0.225514)
(0.327454 0.142828 0.0217199)
(0.0951663 0.424461 0.0116295)
(0.226805 0.241848 0.0272462)
(0.387266 0.242785 0.011729)
(0.0420247 0.363608 0.105548)
(0.115018 -0.214427 0.0357269)
(0.133599 -0.225694 -0.0788642)
(0.805247 0.459949 0.281076)
(0.29581 0.101577 0.0226096)
(0.18641 0.342713 -0.0092559)
(0.295578 0.082491 0.0486466)
(-0.105063 0.777056 -0.0260684)
(-0.449257 -0.272729 0.228983)
(0.143784 -0.116568 -0.023912)
(-0.100442 -0.370856 -0.125607)
(0.0802432 -0.286645 -0.0369907)
(0.625684 -0.035023 0.15277)
(1.53849 0.320083 -0.217001)
(0.358023 0.15492 0.0196641)
(0.162248 0.386307 0.0481044)
(0.0464417 0.400013 0.0520788)
(-0.322683 -0.134843 0.0153235)
(-0.0152095 -0.00885902 -0.0647771)
(0.338995 -0.0947471 -0.0167838)
(-0.0269794 -0.349275 -0.0168345)
(0.163117 -0.265871 -0.0385281)
(0.462922 0.215986 0.228172)
(0.461493 0.132932 -0.0906762)
(0.722941 0.159218 0.0110299)
(0.117583 0.301033 0.251747)
(0.46076 0.235944 0.0459618)
(0.271231 0.52014 -0.0464032)
(-0.0449763 -0.0519623 0.0111368)
(0.387448 -0.036695 -0.0065105)
(0.0636 -0.312704 -0.0854521)
(0.110007 -0.420647 -0.0297217)
(0.231919 -0.0808749 0.0533633)
(1.57901 0.123138 -0.0140124)
(0.389964 0.157589 0.151013)
(0.226431 0.204055 0.130282)
(-0.158874 0.912516 -0.0822576)
(-0.072819 0.00517308 -0.130658)
(0.468311 -0.16435 -0.0684595)
(0.104036 -0.141418 0.0607514)
(0.0764203 -0.314606 0.0970259)
(0.225322 -0.113529 0.0961511)
(1.09408 0.550268 -0.168523)
(0.0178128 0.116311 0.0392492)
(-0.0280568 0.388679 0.0670584)
(-0.114772 -0.0536107 -0.144216)
(0.585364 -0.0875524 0.00072449)
(0.105123 -0.148871 0.0712987)
(0.0650583 -0.277326 0.0966189)
(0.0608923 -0.338708 0.0222615)
(0.0839388 -0.107301 0.10762)
(-0.152548 -0.0571795 -0.00490812)
(-0.159919 0.0409025 -0.155383)
(0.558559 -0.0613266 0.00189019)
(0.214872 -0.135764 0.0568034)
(0.202043 -0.131691 0.0377559)
(0.405632 0.0174066 0.0284329)
(0.194135 -0.0211864 0.148609)
(0.201007 -0.0297375 -0.00785042)
(0.134167 0.0914994 0.0322311)
(0.26049 -0.00232038 -0.0271319)
(0.129165 0.12707 0.0237736)
(-0.248998 0.0147888 -0.00216656)
(0.370033 0.0662168 -0.0168702)
(-0.227909 -0.0159788 0.0464928)
(0.251382 -0.034498 -0.0805789)
(0.0834964 -0.0241414 -0.0212663)
(-0.173888 -0.00239495 0.025434)
(0.30778 0.0165634 0.0782335)
(-0.215832 -0.00508498 -0.00718879)
(0.0834081 -0.12724 -0.162768)
(0.033632 -0.0280598 0.024306)
(0.193116 0.379343 -0.0707931)
(0.0172052 0.251025 -0.0859063)
(-0.194449 -0.192835 0.159018)
(0.697904 -0.0967331 -0.0445301)
(0.280046 -0.0972907 -0.202335)
(0.0815884 0.0548317 -0.339655)
(0.0134795 0.389598 -0.134604)
(0.188778 0.157674 0.0264329)
(0.0293384 0.611737 -0.125486)
(-0.28465 -0.210922 0.2586)
(0.474561 0.133759 0.000514422)
(0.000303034 -0.384007 -0.258676)
(-0.0381107 -0.285984 -0.30452)
(-0.0533442 -0.0207158 -0.408151)
(-0.0106751 0.106804 -0.370446)
(0.0146683 0.429762 -0.151166)
(0.12763 0.215949 -0.0109584)
(0.296371 0.246266 0.00375183)
(0.0989536 0.384571 -0.173756)
(-0.356943 -0.225736 0.184264)
(0.112816 -0.224879 -0.122518)
(-0.105591 -0.143688 -0.11348)
(-0.130207 -0.174443 -0.360084)
(0.0441108 -0.0724271 -0.345465)
(0.0125021 0.177986 -0.252942)
(0.00331815 0.453943 -0.195345)
(0.213353 0.174375 0.0455092)
(-0.0543703 0.748343 -0.208129)
(-0.395955 -0.301533 0.264938)
(-0.113064 -0.0217505 -0.166741)
(0.518762 -0.0598311 -0.136806)
(0.0762528 -0.176284 -0.141587)
(0.0367484 -0.178874 -0.342768)
(0.0583204 -0.0405736 -0.46413)
(-0.0323507 0.140281 -0.233874)
(0.0372696 0.435418 -0.167848)
(0.163501 0.228697 -0.0637285)
(0.521929 0.211829 0.0158207)
(0.100351 0.189966 0.00677803)
(-0.0976121 -0.00978933 -0.142451)
(0.531453 -0.0633217 -0.096142)
(0.144578 -0.164189 -0.117536)
(-0.025172 -0.241813 -0.383193)
(-0.0351804 -0.00538356 -0.38588)
(0.0274581 0.100586 -0.260136)
(0.0867282 0.342399 -0.191747)
(0.509033 0.0880008 0.0186528)
(0.27904 0.509932 -0.284145)
(0.237185 -0.036468 -0.0645708)
(-0.104248 0.0635305 -0.0548218)
(0.481033 -0.0474895 -0.0182997)
(0.0641658 -0.257925 -0.3323)
(-0.00790474 -0.0105988 -0.346785)
(0.00657352 0.113875 -0.316411)
(0.0650508 -0.00569177 -0.173974)
(-0.221218 0.902686 -0.336557)
(0.242065 -0.0612125 -0.0679223)
(-0.0880606 0.0462905 -0.0113813)
(0.467996 -0.0469098 -0.0218014)
(0.233343 -0.23059 -0.263438)
(0.15943 -0.166423 -0.246968)
(0.442561 0.110986 -0.0104675)
(0.273205 0.0044029 -0.224768)
(-0.135511 0.0534576 0.00391839)
(0.549569 -0.0592049 0.051748)
(0.230585 -0.0541841 -0.0466993)
(-0.193839 0.163569 0.15299)
(0.167382 -0.104192 0.0114492)
(0.151289 0.0484861 0.0273309)
(0.282123 -0.00651432 -0.00346137)
(0.0251201 0.140892 0.0179555)
(0.0845475 -0.0553416 -0.273497)
(0.0521032 -0.193238 -0.15881)
(0.056403 0.0215768 -0.179528)
(-0.340714 0.0335344 0.224814)
(-0.0235912 -0.283121 -0.340231)
(0.161797 -0.0239969 -0.312161)
(0.11386 0.00132415 -0.0861657)
(-0.175952 0.0775093 0.130462)
(-0.0706014 -0.307818 -0.356956)
(0.116613 -0.0666505 -0.441396)
(0.0777298 -0.00125669 -0.0305142)
(0.0750989 -0.0711334 -0.19112)
(0.140517 0.416323 0.0251239)
(-0.0190821 0.174503 -0.211866)
(-0.192512 -0.129347 0.228336)
(0.380944 0.211975 -0.092324)
(0.146591 -0.203467 -0.196896)
(0.118791 -0.254183 -0.211922)
(0.110934 -0.0983567 -0.246486)
(-0.0520163 -0.00829131 -0.18618)
(0.042716 0.011755 -0.199769)
(0.169616 0.0927239 -0.124597)
(-0.0368608 0.57698 -0.123805)
(-0.241511 -0.168478 0.218186)
(0.43836 0.170064 -0.0510816)
(-0.39192 -0.0485724 0.0803478)
(0.138361 -0.0115357 -0.020251)
(-0.081034 0.144085 -0.00781401)
(0.427728 0.00927675 -0.131046)
(0.154224 -0.0238402 -0.222565)
(0.168333 0.048234 -0.13847)
(0.0802803 0.135806 -0.232734)
(0.264258 0.296753 0.0521174)
(0.0668156 0.304128 -0.29898)
(-0.28654 -0.173147 0.251714)
(-0.191303 -0.104032 -0.0675297)
(0.566917 -0.0474842 -0.0706224)
(0.11695 -0.00408379 -0.221403)
(0.154743 0.00769343 -0.167581)
(0.0579494 0.0792164 -0.237562)
(0.216151 0.114382 -0.0720066)
(-0.121656 0.705413 -0.186035)
(-0.450084 -0.226807 0.297977)
(0.73226 0.283103 0.0238493)
(-0.241109 0.13938 0.0857416)
(0.511966 -0.00856048 -0.0983434)
(0.301347 -0.0656385 -0.211904)
(-0.0200217 0.0459211 -0.251841)
(0.158017 0.0844374 -0.100264)
(0.0140834 0.273055 -0.197587)
(-0.26555 -0.0187895 0.339923)
(0.598711 0.0999259 -0.090307)
(0.0610389 -0.151704 0.0387148)
(0.215535 0.0164506 -0.11541)
(-0.136802 0.0550003 0.0976286)
(0.45924 -0.00292561 -0.180431)
(0.241407 0.0107709 -0.126813)
(0.118178 -0.0502483 -0.262309)
(0.422058 0.30744 0.0469836)
(0.123303 0.230147 -0.3297)
(-0.091594 0.0671833 -0.0555989)
(0.55904 0.0584301 -0.0855701)
(0.157511 0.0303491 -0.177834)
(-0.179175 0.196232 0.233377)
(0.137966 0.0874152 0.123834)
(0.317949 0.00701011 -0.15846)
(0.0712207 -0.0260175 -0.20636)
(0.210921 -0.182986 -0.179019)
(-0.0963452 0.173787 -0.137544)
(-0.0489071 -0.0657294 0.180938)
(0.0833164 -0.17425 -0.235528)
(-0.219707 0.0935557 0.0798065)
(0.257393 0.13536 -0.103752)
(-0.14189 -0.0509229 0.155575)
(0.112783 -0.116576 -0.242634)
(0.146764 -0.0588058 -0.165878)
(-0.135116 -0.0501559 -0.0691324)
(0.0566952 0.114815 0.110791)
(0.125626 0.02131 -0.135976)
(0.0234485 -0.012651 0.15523)
(0.215166 0.114304 0.00157471)
(0.115943 -0.0357324 -0.0460472)
(0.122316 0.0319643 0.0526144)
(0.0849419 0.115427 -0.0908971)
(0.0392821 -0.0349746 0.0552628)
(0.178354 0.0691648 -0.0921466)
(-0.0199297 -0.0271022 0.15219)
(0.26363 0.107373 -0.200442)
(-0.176797 -0.0272964 0.221544)
(0.393018 0.171533 -0.145886)
(-0.270832 -0.0490377 0.142538)
(0.082049 0.0464865 0.051379)
(0.145194 0.045229 -0.0961803)
(0.0337701 0.0108031 0.143025)
(0.228764 0.092066 -0.202734)
(-0.04663 -0.025551 0.233176)
(0.339577 0.183433 -0.0304435)
(-0.271887 -0.0550999 0.0527352)
(0.0776205 0.00511837 -0.000370562)
(0.154599 0.07941 -0.0845269)
(0.0375696 0.00641056 0.118624)
(0.229366 0.0866097 -0.165028)
(-0.0507592 -0.00554603 0.249308)
(0.365055 0.151079 -0.300315)
(-0.30117 -0.0412288 0.270586)
(0.177363 0.0814287 -0.0917529)
(0.0596441 0.0372203 0.0719859)
(0.231809 0.105575 -0.146595)
(-0.000164966 0.00255779 0.218559)
(0.345093 0.161442 -0.301296)
(-0.2354 -0.0190489 0.219025)
(0.231746 0.0939047 -0.171342)
(0.00792288 0.0307711 0.204398)
(0.320904 0.133196 -0.279885)
(-0.0714375 0.0026791 0.311659)
(0.0606196 0.0368166 0.116846)
(0.322356 0.139595 -0.212205)
(0.111091 0.0215075 -0.093682)
(0.0234374 0.00685875 0.105287)
(0.0772801 0.00438189 0.063735)
(0.126561 0.028272 -0.0869227)
(0.00661496 -0.00336391 0.146014)
(0.105904 0.0188868 -0.0798206)
(0.105442 0.0116389 0.0370436)
(0.104198 0.0266156 0.0521093)
(0.0286118 0.0204895 -0.0103013)
(0.115177 -0.0103472 -0.361668)
(0.115854 0.0384647 -0.362477)
(0.0856963 -0.0314995 -0.111415)
(0.0942997 0.081 -0.116914)
(0.252818 0.0727447 -0.0268711)
(0.0902201 0.0423687 -0.43042)
(0.0876664 -0.0634447 0.332845)
(0.0961789 0.0689901 -0.396239)
(0.54827 -0.0633691 0.228497)
(0.0605512 0.0230255 -0.113399)
(0.186478 -0.031653 0.199274)
(0.16332 0.0978131 -0.0714003)
(0.131439 0.0679817 -0.454814)
(0.0604425 -0.18539 0.48111)
(0.116227 0.315952 -0.425874)
(0.15664 -0.0379535 0.281986)
(0.106707 0.0364839 -0.158396)
(0.0808417 -0.307892 0.218611)
(0.0609183 0.169855 -0.1302)
(0.0222535 0.0847559 -0.402018)
(0.0385421 -0.175153 0.427973)
(0.0139263 0.169835 -0.385622)
(0.10453 -0.0940141 0.165043)
(0.0855207 0.0890568 -0.253026)
(0.0714098 0.0164631 0.200689)
(0.0851086 0.088869 -0.236578)
(0.294402 -0.00818045 0.178752)
(0.186176 -0.0258654 0.0435459)
(0.11641 -0.00675617 -0.0122588)
(0.176879 -0.000877378 -0.0697479)
(0.193856 0.0577784 -0.0892536)
(0.297773 -0.0980502 0.172231)
(0.0564432 -0.0259322 0.023958)
(0.17965 -0.000662046 -0.125832)
(0.15633 0.0673598 0.0738164)
(0.174362 0.00945181 -0.133032)
(0.189509 -0.0143594 0.0479888)
(0.102349 0.00730721 -0.0108021)
(0.0902774 -0.0254719 0.0271649)
(0.104883 -0.000886129 -0.00725052)
(0.58064 -0.0459596 0.207477)
(0.285695 0.0524118 -0.00237998)
(0.153235 0.0651442 -0.0942551)
(0.269708 -0.0129708 0.172576)
(0.220358 0.0436901 -0.0476348)
(0.102779 -0.0100164 0.00063978)
(0.1861 0.0217649 -0.140833)
(0.193152 -0.0364927 0.141842)
(0.173344 -0.00943258 -0.234347)
(0.120028 -0.0462944 0.0206069)
(0.148966 -0.0131035 -0.0024403)
(0.385426 0.0152982 -0.00994511)
(0.26015 0.0490206 -0.0285834)
(0.0911192 -0.162409 0.173396)
(0.190778 0.167768 -0.133402)
(0.761852 -0.0614953 0.0448666)
(0.109448 -0.227637 0.0230536)
(0.114173 0.19979 0.0231591)
(0.209632 0.039153 -0.129944)
(0.0934977 -0.276223 0.264746)
(0.13946 0.12604 -0.182105)
(0.0868363 -0.185801 0.00558059)
(0.740253 0.578385 0.21589)
(0.167936 -0.00382286 -0.301439)
(0.16693 0.0251619 0.131549)
(0.105532 0.0873047 -0.24877)
(0.450437 0.0736444 -0.0215617)
(0.292302 -0.120546 -0.221541)
(0.12706 0.0673549 0.186388)
(0.0672613 -0.0669023 -0.341535)
(0.346819 0.130895 -0.0376454)
(0.144202 -0.168507 0.0237454)
(0.396431 -0.0610811 0.0181726)
(0.122448 0.117223 -0.180589)
(-0.10324 -0.367929 0.290711)
(0.0247947 0.23993 -0.156471)
(0.0504917 -0.239902 -0.00130841)
(0.749281 0.544738 0.205572)
(-0.0444875 -0.413746 -0.0431184)
(-0.0331105 0.219183 0.0688333)
(0.0999268 0.0823646 -0.254904)
(0.0591202 -0.211472 0.33393)
(0.110479 0.128405 -0.192302)
(0.737013 0.553355 0.223261)
(0.0914235 -0.247563 -0.0102078)
(0.682552 0.1411 0.246721)
(0.16501 -0.0242902 -0.344735)
(0.0895429 0.0141696 0.321352)
(0.0214364 0.163898 -0.305756)
(0.467312 -0.00704801 -0.0187508)
(0.740215 0.131748 0.268557)
(1.35863 0.379361 -0.305891)
(0.123351 -0.0932575 -0.356041)
(0.132977 0.0103845 0.294936)
(0.0230336 0.114055 -0.336795)
(1.35268 0.353701 -0.279313)
(0.582448 0.0966039 -0.0190201)
(0.374012 -0.0360821 -0.193596)
(0.165214 0.108434 -0.341374)
(-0.068762 -0.0706621 0.246506)
(0.107223 0.191269 -0.417423)
(0.328856 -0.110455 -0.0250852)
(0.592563 0.102374 -0.04677)
(0.164863 -0.024824 0.112645)
(1.5935 0.194271 0.0187902)
(0.347542 0.0243095 -0.0613617)
(0.333727 -0.0266423 -0.15006)
(0.22959 -0.0391235 0.0228292)
(0.103846 0.00301554 -0.0103199)
(0.277272 -0.0387573 -0.119514)
(0.146632 0.0191789 0.0512433)
(0.338091 -0.137923 -0.0573991)
(0.034167 -0.0167145 -0.0158352)
(0.335228 -0.0344246 -0.157602)
(0.294513 -0.063673 -0.0614441)
(0.0990423 0.0146525 -0.00641017)
(0.078704 -0.026839 0.00251509)
(0.0941561 0.00671586 -0.00010174)
(0.292776 -0.0379533 -0.121026)
(0.140774 0.0236494 0.0692928)
(0.213483 -0.0750356 -0.0853816)
(0.156631 0.0302978 0.124139)
(0.668293 -0.0883466 -0.0551446)
(0.576209 -0.0895909 -0.167855)
(0.0908667 -0.0107965 -0.0387415)
(0.260308 -0.0450637 -0.0120837)
(0.527142 -0.112602 -0.219968)
(0.199857 0.156264 0.133945)
(0.220463 -0.209383 0.045219)
(0.153109 0.197843 -0.00502575)
(0.648722 -0.064244 -0.0518093)
(0.526186 -0.0908655 -0.138284)
(0.153122 -0.290381 -0.136552)
(0.15316 0.232871 0.0719587)
(0.114326 -0.172751 -0.0298242)
(0.808816 0.495784 0.274374)
(0.478855 -0.125562 -0.200712)
(0.1413 0.163357 0.135255)
(0.0807607 -0.233676 -0.181605)
(0.135844 0.145468 0.146836)
(0.479212 0.0764707 0.0386719)
(0.825091 0.502798 0.286062)
(0.126071 0.0725356 -0.273105)
(-0.000324365 0.00335251 0.294538)
(0.11115 0.00827014 -0.337268)
(0.00639893 0.162864 0.295232)
(0.391512 -0.0531916 0.0422867)
(0.783183 -0.020628 0.21375)
(1.53569 0.317863 -0.223161)
(0.0318965 0.168355 -0.368274)
(0.0316348 -0.0635368 0.348607)
(0.0552302 -0.0426208 -0.401341)
(0.124383 0.176928 0.302033)
(0.524459 0.0484741 0.0404106)
(0.514596 0.25337 0.166789)
(0.541073 0.155047 -0.262747)
(0.0761148 0.250468 -0.270413)
(0.0436611 -0.0409314 0.305157)
(0.0661455 0.0382738 -0.393694)
(0.135211 0.158907 0.30544)
(0.943503 0.17746 0.0519392)
(0.171406 -0.0221468 0.0600084)
(1.6006 0.15394 -0.0144276)
(0.0544678 0.191984 -0.250317)
(0.0862242 0.0448453 0.308079)
(0.0707869 0.0361412 -0.334065)
(0.0672036 0.134437 0.252494)
(0.327548 -0.027916 -0.121057)
(0.0973895 0.0195322 0.226116)
(0.0833432 0.030061 0.210245)
(0.318184 -0.0378709 -0.125443)
(0.2083 -0.0271164 0.00849733)
(0.0974172 0.0215937 0.174901)
(0.0770851 -0.0467434 -0.298213)
(0.131094 0.13752 0.254648)
(0.657535 -0.0996079 -0.0538254)
(0.501645 -0.0443487 -0.101598)
(0.0900206 0.0206107 0.211565)
(0.0479486 -0.128572 -0.280268)
(0.174546 0.146487 0.217355)
(0.0341914 0.161291 -0.419796)
(0.0827789 -0.0244143 0.3979)
(0.0508871 0.107443 -0.389451)
(0.0412259 -0.0130817 0.374478)
(0.0697533 0.0819772 -0.245023)
(0.0275429 -0.156921 0.313377)
(0.0980928 0.0620508 -0.191672)
(0.0321795 0.0851517 -0.449519)
(0.107587 0.00920803 0.378131)
(0.0374051 0.0913098 -0.436105)
(0.0225899 0.0626055 0.29497)
(0.12376 0.0240091 -0.284207)
(0.0244589 0.00765746 0.350706)
(0.0152274 0.114853 -0.292902)
(0.0770218 0.0472293 -0.461956)
(0.11301 0.0199624 0.367544)
(0.0659845 0.0890836 -0.467855)
(0.0259043 0.123262 0.329959)
(0.0858369 0.0457744 -0.327092)
(0.0369894 0.00911655 0.350608)
(0.0404964 0.0858124 -0.335283)
(0.458403 0.0137079 0.23136)
(0.786554 -0.0961336 0.101265)
(0.449551 -0.0499347 0.249014)
(0.557674 -0.0685709 0.195435)
(0.340096 -0.0186533 0.132153)
(0.320406 0.0476842 -0.0349153)
(0.119115 -0.155011 0.205739)
(0.346665 0.090233 0.0622634)
(0.381338 -0.0483892 -0.00524708)
(0.16901 0.143301 -0.155126)
(0.206167 0.0288587 0.108577)
(0.202483 0.0456227 -0.136152)
(0.749343 0.147147 0.25461)
(1.15325 0.0597102 0.149241)
(0.209842 0.141759 -0.22968)
(0.0861406 0.0665644 0.242355)
(1.09643 -0.012317 0.172337)
(0.178386 0.121379 -0.187728)
(0.771792 0.207156 0.00797558)
(1.4047 0.299828 0.116932)
(0.174144 -0.28158 -0.330472)
(0.0701595 0.200446 0.304977)
(0.11808 -0.0908788 -0.367723)
(0.353252 0.134031 -0.0225322)
(0.269983 -0.210564 0.0404708)
(1.32097 0.377349 -0.277868)
(0.440461 -0.00550021 -0.0103688)
(0.130528 0.118592 -0.152303)
(-0.0550765 -0.400767 0.31329)
(0.0618223 0.256433 -0.175449)
(0.148249 -0.272589 -0.0107377)
(0.551752 0.0654899 0.17335)
(-0.0124553 -0.431197 0.0125204)
(0.132149 0.0957049 0.0304948)
(0.0397777 0.150352 -0.284215)
(0.0235217 -0.215096 0.334308)
(0.137238 0.0611499 -0.217606)
(0.653427 0.108699 0.227002)
(1.40119 0.335117 -0.301488)
(0.068293 -0.25328 0.0999346)
(0.30351 0.387442 0.33541)
(0.394402 -0.0974502 -0.237528)
(0.0860992 0.100998 0.26717)
(0.131864 0.0705668 -0.340289)
(0.421932 0.14772 -0.01452)
(0.238154 -0.201883 0.0234599)
(0.47397 -0.00206943 -0.232157)
(0.50449 0.064241 -0.015937)
(0.0226147 0.102926 -0.324557)
(0.0568755 -0.302588 0.363671)
(0.153392 0.232839 -0.112837)
(0.238652 -0.174221 -0.00663286)
(0.150816 -0.32355 -0.0155779)
(0.139286 0.150057 0.0358908)
(0.181389 -0.183059 -0.457597)
(0.152998 0.156734 0.269025)
(0.152467 0.0507992 -0.458129)
(0.456164 0.139992 -0.0818432)
(0.387091 -0.092532 -0.0989753)
(1.62621 0.205714 0.052253)
(0.357254 -0.0254204 -0.156893)
(0.0835334 0.181882 -0.474571)
(-0.0210349 -0.244136 0.380826)
(0.13715 0.216107 -0.406631)
(0.199375 -0.0938085 0.135099)
(1.56322 0.164759 -0.0112762)
(0.0465813 -0.277166 0.0498938)
(0.182282 0.119027 -0.00181097)
(0.113875 0.0134189 0.0146799)
(0.0845441 0.0275046 0.0280261)
(-0.00953331 0.035935 0.0111397)
(0.00140363 -0.0452681 -0.0710032)
(0.0616918 0.0265671 0.00310602)
(0.0812649 -0.00968552 0.0288264)
(0.180702 -0.0157732 -0.0292648)
(0.103118 0.00491944 6.69373e-05)
(0.396621 0.0177369 0.0565805)
(0.19315 -0.0696625 -0.0869727)
(0.188371 0.038031 0.123525)
(0.176787 0.11482 -0.122234)
(0.046346 0.02951 0.204973)
(1.12139 -0.148627 -0.0176303)
(0.749138 -0.144819 0.156422)
(0.433518 -0.0901989 0.0357484)
(0.468398 -0.0249958 0.0230229)
(1.16649 -0.114368 0.0403936)
(0.441305 0.0446159 -0.145644)
(0.407076 -0.0043484 0.0660149)
(1.27122 -0.520257 0.140687)
(0.786944 -0.283386 -0.204864)
(0.640239 -0.121354 -0.156327)
(1.01336 0.0813453 0.0326859)
(0.733373 0.457984 -0.182988)
(0.535174 0.120004 -0.204745)
(0.569563 0.197596 -0.100195)
(0.326794 0.0848239 -0.101458)
(0.141181 -0.177485 0.055216)
(0.290966 -0.0935653 0.0948798)
(0.05264 0.12748 -0.0956075)
(0.162878 -0.221281 0.327319)
(0.0407684 0.220128 -0.323776)
(0.0613729 -0.0586233 0.320936)
(0.806869 0.431108 0.248852)
(-0.00334338 -0.376425 -0.103389)
(0.00111384 0.246415 0.0255295)
(0.0359834 -0.241834 -0.249286)
(0.143048 0.135823 0.155517)
(-0.022221 -0.287158 -0.252054)
(0.0428262 0.390298 0.363651)
(0.0769731 -0.270978 -0.0665257)
(0.652225 -0.0203467 0.182976)
(-0.00888173 -0.0509347 -0.458345)
(-0.00970442 0.159114 0.269541)
(-0.0133664 -0.147075 -0.254707)
(-0.0384381 0.147512 0.23069)
(0.912739 0.291092 -0.0378378)
(0.744854 0.334161 -0.176892)
(1.30808 -0.0976797 -0.471055)
(1.01757 0.254189 0.0399787)
(0.91561 0.254488 -0.145369)
(1.07859 0.358289 0.123283)
(0.457017 0.145053 -0.0952455)
(0.174591 -0.317083 0.0739817)
(1.51628 0.345528 -0.190945)
(0.424241 -0.0306634 0.0412926)
(0.0404042 0.159402 -0.080109)
(0.226104 -0.222815 0.288993)
(0.0376236 0.216207 -0.228609)
(0.0557949 -0.0658929 0.320525)
(1.57371 0.298142 -0.225719)
(0.0787896 -0.264268 0.0220851)
(0.434482 0.318824 0.287037)
(0.0891522 -0.0674475 -0.386971)
(0.102746 0.191993 0.212253)
(0.0122286 -0.182693 -0.36294)
(0.0640123 0.170002 0.172417)
(0.763382 0.25981 0.0117385)
(1.16251 0.269046 -0.139942)
(0.97561 -0.203889 0.0986727)
(0.535251 0.343285 -0.0327537)
(0.708726 0.302052 0.272044)
(0.44638 0.106246 -0.08504)
(0.218446 -0.190671 0.0732707)
(0.60008 0.14894 -0.278236)
(0.586662 0.0703914 0.0694741)
(0.0502614 0.20677 -0.133664)
(0.262385 -0.230182 0.322494)
(0.0700687 0.15909 -0.211005)
(0.107119 -0.000340696 0.350129)
(0.335474 0.13735 -0.0145044)
(0.108272 -0.395753 -0.062047)
(0.134485 0.133777 0.0130728)
(0.081665 -0.0331707 -0.450147)
(0.151961 0.165088 0.275941)
(-0.00603443 -0.260564 -0.349291)
(0.048424 0.136131 0.167912)
(0.400328 0.26758 -0.0449708)
(1.1438 0.276926 0.0259881)
(1.03448 -0.105461 -0.11959)
(0.993591 0.204725 -0.102699)
(1.48578 0.199332 0.0453602)
(0.633494 0.319086 0.0982562)
(0.273366 0.217475 -0.178616)
(0.191511 -0.140521 0.0151419)
(1.631 0.159893 0.0234712)
(0.452506 0.0450898 0.0608311)
(0.0474883 0.260752 -0.119622)
(0.242041 -0.179099 0.338441)
(0.071356 0.164685 -0.241497)
(0.133519 0.00452866 0.327086)
(1.55237 0.130361 -0.0473811)
(0.0547916 -0.269409 0.057089)
(0.146936 0.117191 0.0150288)
(0.0542976 -0.000645765 -0.411586)
(0.0831454 0.118661 0.215757)
(-0.0232317 -0.22047 -0.279736)
(0.112868 0.11034 0.14762)
(0.265492 -0.025184 -0.0731488)
(0.201692 0.0295797 0.0466713)
(-0.01623 -0.0719618 -0.0805044)
(0.155495 0.106151 0.300349)
(0.393417 -0.0266805 -0.117795)
(0.466273 -0.0437865 -0.188131)
(0.464604 -0.0266694 -0.193145)
(0.446257 -0.0190398 -0.0177468)
(0.574965 -0.0059829 -0.0345512)
(0.146629 -0.0033072 0.0443545)
(0.379042 -0.0828811 -0.205434)
(0.139329 0.15648 0.122864)
(0.019975 -0.116122 -0.302734)
(0.0889754 0.138607 0.393736)
(0.0367845 -0.161785 -0.376477)
(0.110177 0.105664 0.409203)
(0.382688 -0.029722 -0.047223)
(0.0617844 -0.389018 -0.236687)
(0.0761751 0.206323 0.0863415)
(0.000954523 -0.182478 -0.270193)
(0.133647 0.157617 0.367495)