/*--------------------------------*- C++ -*----------------------------------*\
  =========                 |
  \\      /  F ield         | OpenFOAM: The Open Source CFD Toolbox
   \\    /   O peration     | Website:  https://openfoam.org
    \\  /    A nd           | Version:  10
     \\/     M anipulation  |
\*---------------------------------------------------------------------------*/
FoamFile
{
    format      ascii;
    class       volVectorField;
    location    "0.1";
    object      U_0;
}
// * * * * * * * * * * * * * * * * * * * * * * * * * * * * * * * * * * * * * //

dimensions      [0 1 -1 0 0 0 0];

internalField   nonuniform List<vector> 
114940
(
(-0.220846 0.0192478 -0.0387976)
(0.234576 0.0241366 0.0513419)
(-0.24103 0.162373 -0.000394293)
(0.266748 -0.0294474 0.0280907)
(0.114986 0.1604 -0.0576431)
(0.0983134 -0.0381218 0.0796728)
(0.0162335 0.0378214 -0.0947175)
(0.193475 0.0793607 -0.0491998)
(-0.137733 -0.00883439 0.0108851)
(0.0602084 0.132803 0.0302604)
(0.0665142 -0.0131133 -0.0249603)
(0.159528 0.0343388 0.0479348)
(-0.00196913 0.00426214 -0.0993415)
(0.23899 0.0768055 0.136815)
(-0.154108 0.00340032 -0.167771)
(0.12377 0.0221924 0.0821255)
(0.0839306 0.0746795 -0.0393017)
(0.139246 0.0217421 0.0606878)
(0.0425154 0.0356491 -0.101004)
(0.201519 0.0781004 0.141875)
(-0.0261927 0.0117245 -0.162056)
(0.0887822 0.0597369 0.130951)
(0.103869 0.0358468 0.0169678)
(0.133526 0.0608691 0.0494591)
(0.0608423 0.0306797 -0.0860817)
(0.202675 0.0718168 0.123009)
(-0.00687192 0.0187358 -0.156764)
(0.129038 0.00120002 -0.0422777)
(0.0704994 0.0510997 0.1065)
(0.16615 0.0578721 0.0713147)
(0.0706064 0.0522416 -0.0594502)
(0.212993 0.0809905 0.118959)
(-0.0271877 0.0157446 -0.184388)
(0.364516 0.0796719 0.00822206)
(-0.251885 5.11914e-05 -0.00240314)
(-0.0143265 0.0449842 0.427117)
(-0.00440423 0.144504 0.452992)
(-0.353569 0.0384916 -0.0939307)
(0.389036 0.0849193 -0.00112355)
(-0.19987 -0.0393287 -0.00512731)
(0.00115969 0.0694693 0.45391)
(0.035343 0.000294077 0.393375)
(-0.177696 0.0637901 -0.04585)
(0.261664 0.00510859 -0.05799)
(-0.233335 0.0114209 -0.00593918)
(0.100085 0.0283754 0.2945)
(0.0470639 -0.0730633 0.4313)
(0.096089 0.473114 0.185989)
(-0.0247761 0.149213 0.138307)
(-0.178439 -0.10788 -0.151575)
(-0.0333297 -0.0305507 0.376772)
(0.0604113 -0.0451934 0.324562)
(0.0658554 0.00060001 0.38007)
(0.129784 0.0783164 0.271778)
(-0.0150866 0.556356 0.395563)
(-0.29904 -0.150567 -0.154441)
(-0.181832 0.0530592 -0.0118861)
(0.371971 -0.0260347 0.355101)
(0.0882098 -0.000223461 0.262336)
(0.0599971 0.0114874 0.368668)
(0.121353 0.0486094 0.247307)
(0.07764 0.0845419 0.434237)
(0.216158 0.356551 0.072101)
(-0.0123965 -0.0242132 0.24542)
(-0.16723 0.0212031 0.0181331)
(0.407267 0.0270411 0.269541)
(0.0641731 0.0225164 0.326869)
(0.133373 0.0220314 0.230011)
(0.0803802 0.0774222 0.400387)
(0.302974 0.00599166 0.132366)
(-0.00737315 0.290459 0.24374)
(0.239106 -0.125614 0.134978)
(-0.197989 0.128022 -0.0366686)
(0.392535 0.0264369 0.311696)
(0.221356 -0.0263364 0.190016)
(0.0653163 0.00904422 0.375326)
(-0.235679 0.100095 -0.151633)
(0.402839 0.235247 0.22947)
(-0.134124 -0.038382 -0.273403)
(0.169009 0.0285614 0.0444233)
(0.0992522 0.0782803 -0.0575558)
(0.235378 0.018817 0.0555292)
(-0.0296789 0.153722 -0.151797)
(0.353322 0.111436 0.221064)
(-0.0675885 0.009588 -0.306219)
(0.122738 -0.0167122 -0.00922049)
(0.0922031 0.063137 0.0850795)
(0.197844 0.0528004 0.110099)
(0.0482273 0.0725269 -0.108957)
(0.328997 0.118808 0.179701)
(-0.0202137 0.0214732 -0.215388)
(0.10747 0.0278591 -0.0692868)
(0.181212 0.0420153 0.177235)
(0.0923289 0.0568441 -0.0748257)
(0.316903 0.112011 0.149436)
(-0.0703547 -0.00941424 -0.187866)
(0.350629 0.0480062 -0.0278035)
(-0.22946 -0.00541048 0.00172172)
(0.0914486 0.0267572 0.412852)
(0.0868419 0.0419802 0.125039)
(-0.15441 0.0496316 -0.00573427)
(0.288625 -0.0170255 -0.101095)
(-0.213101 0.0155398 0.0426551)
(-0.0108162 -0.0428671 0.414722)
(0.0163902 0.00921145 0.476535)
(0.0919844 -0.000418237 0.0804684)
(0.0848656 0.426211 0.344739)
(0.012192 0.208131 0.0499716)
(-0.173126 -0.16472 -0.122787)
(0.029687 -0.0653901 0.505254)
(0.0367262 0.019277 0.4416)
(0.138846 0.00853614 0.313057)
(0.115292 0.130411 0.0531271)
(-0.0531705 0.557198 0.477667)
(-0.288974 -0.166486 -0.2243)
(0.0449726 -0.129217 0.394936)
(0.0505769 -0.0559356 0.412266)
(0.0812425 0.02057 0.372652)
(0.0753248 0.104032 0.301742)
(0.0623891 0.189941 0.177237)
(0.126405 0.290571 0.246561)
(0.0844165 0.333228 0.192262)
(0.383183 -0.00861053 0.312112)
(0.0933541 -0.0703045 0.146634)
(0.136836 -0.0124242 0.45789)
(0.0833819 0.0249391 0.428415)
(0.102671 0.066254 0.364515)
(0.0893793 0.123356 0.378615)
(0.114987 0.144937 -0.0184061)
(-0.185211 0.632925 0.586414)
(-0.451732 -0.188764 -0.25889)
(-0.0926995 -0.0619634 0.168493)
(0.331092 -0.0340465 0.296731)
(0.10993 -0.0227688 0.126039)
(0.148363 0.00612143 0.482848)
(0.119497 0.0304518 0.414072)
(0.0788652 0.0759375 0.417858)
(0.0565337 0.170925 0.132072)
(-0.0573473 0.257157 0.649494)
(-0.363061 -0.0654844 -0.354415)
(-0.079473 -0.100263 0.162449)
(0.380703 0.0378494 0.253759)
(0.108983 -0.0177419 0.151202)
(0.252685 -0.0230913 0.455478)
(-0.0569677 0.0704164 0.227663)
(0.0226603 0.11591 0.30852)
(0.146885 0.112074 0.501011)
(0.325262 0.310639 -0.0853962)
(0.153213 0.154293 0.339977)
(-0.156546 0.0257331 0.0651925)
(0.374796 -0.0027038 0.308301)
(0.23776 -0.0286813 0.18554)
(-0.0447043 -0.00756136 0.350408)
(0.0917031 0.0585915 0.194979)
(0.156819 0.0754754 0.484878)
(0.467111 0.129469 -0.00165441)
(0.237215 0.194814 0.370982)
(0.26511 -0.0236889 0.0900095)
(-0.161646 0.0874462 -0.0555366)
(0.36062 0.0168105 0.319257)
(0.125704 -0.0325546 0.180774)
(0.176627 0.0123025 0.375036)
(0.424151 -0.0152503 0.0568123)
(0.143865 0.276717 0.288253)
(0.27057 -0.0821255 0.0748629)
(-0.169195 0.0845145 -0.00728901)
(0.449857 0.0593292 0.145079)
(0.184367 0.027014 0.341628)
(-0.246999 0.125789 -0.162974)
(0.604683 0.346956 -0.0148472)
(0.154821 0.0478478 -0.0365307)
(0.284787 0.00360147 0.0263972)
(-0.137384 0.0234966 0.0065559)
(0.309671 -0.0198617 0.0178855)
(-0.252663 0.0433141 -0.0112249)
(0.153376 0.00117507 0.110091)
(0.0406046 -0.0418218 0.0161976)
(0.157037 0.373668 0.351437)
(0.00611265 0.216633 -0.128408)
(-0.184227 -0.154426 0.081953)
(0.562953 -0.0275295 0.219685)
(0.133011 0.123586 0.0992073)
(0.0944616 0.308406 0.191416)
(0.249148 0.0250949 0.0800104)
(-0.0164727 0.561713 0.412684)
(-0.321301 -0.215657 -0.182226)
(0.221471 -0.0989426 0.0707548)
(0.245035 -0.033207 0.228791)
(0.211439 -0.0439565 0.0987621)
(0.0998733 0.164639 0.0958773)
(0.0505421 0.303792 0.138328)
(0.12189 0.180652 0.101785)
(0.266412 0.193503 0.242464)
(0.0479094 0.359766 -0.135482)
(0.0228781 -0.211705 0.265125)
(0.0813674 -0.192738 0.301225)
(0.115643 -0.00752381 0.302252)
(0.103899 0.0553383 0.213005)
(0.0481908 0.195168 0.0716404)
(0.168687 0.364305 0.14211)
(0.290735 0.00356685 0.0638581)
(-0.170403 0.717008 0.483147)
(-0.450567 -0.271907 -0.212444)
(0.108761 -0.115285 -0.0269615)
(-0.0925384 -0.336092 0.234834)
(0.0129324 -0.153551 0.269407)
(0.0631731 0.00763006 0.384827)
(0.0732017 0.163601 0.304673)
(0.0324269 0.241167 0.137241)
(0.0882613 0.295374 0.15774)
(-0.0488802 0.348513 0.260556)
(-0.317281 -0.113294 0.0232585)
(-0.0106033 -0.00971469 0.0608197)
(0.374549 -0.116801 0.134428)
(0.0179043 -0.31978 0.218754)
(0.00026728 -0.130691 0.262776)
(0.120032 -0.00307006 0.355111)
(0.0821717 0.0655132 0.304309)
(0.0968213 0.236835 0.32101)
(-0.0494312 0.0744399 0.1116)
(0.372991 0.255621 0.144516)
(0.213991 0.523713 -0.0274215)
(-0.0562308 -0.0275391 0.00659078)
(0.411295 -0.0510773 0.118334)
(0.0449928 -0.285824 0.228621)
(0.0461974 -0.273098 0.255245)
(-0.0263024 -0.048305 0.470141)
(0.0845069 0.101199 0.393513)
(0.0842064 0.334153 0.301969)
(0.363171 0.0003102 -0.0919036)
(-0.202846 0.799593 0.541143)
(-0.116346 -0.00400651 -0.0203282)
(0.445456 -0.105733 0.134757)
(0.136566 -0.0607925 0.125731)
(0.0526773 -0.235885 0.403358)
(0.0272976 0.0191823 0.405263)
(0.0919657 0.0869265 0.437536)
(0.145489 0.130954 0.133415)
(-0.166413 0.283726 0.75643)
(-0.127711 -0.00951725 0.161126)
(0.411633 0.0397731 0.249658)
(0.0903324 -0.00525652 0.0426883)
(0.106681 -0.238726 0.386463)
(0.0366842 -0.121111 0.477486)
(0.273591 0.146036 -0.0216319)
(-0.118532 0.0386651 0.716422)
(-0.161425 0.0357274 0.170676)
(0.420637 0.019001 0.233547)
(0.256354 -0.0742179 -0.0329678)
(0.19636 -0.0775069 0.0926589)
(0.301387 0.0831472 0.239247)
(0.159817 -0.0138597 -0.106557)
(0.19701 -0.0310383 0.016025)
(0.135991 0.0923352 -0.0349728)
(0.263956 -0.000882418 0.0304185)
(0.133784 0.129008 -0.0277824)
(-0.11612 0.0532193 0.0416294)
(0.300616 -0.0261882 -0.0759087)
(-0.251479 0.0532477 0.0719229)
(0.224597 -0.00451977 0.0257804)
(0.123618 -0.0907402 -0.0118695)
(0.284265 0.44893 -0.0629152)
(-0.00106966 0.214298 0.0930957)
(-0.18502 -0.14885 -0.0321212)
(0.113717 -0.0503059 0.00148336)
(0.149849 0.34189 -0.104833)
(0.270446 0.0900126 0.0235458)
(0.065039 0.624417 -0.044707)
(-0.31867 -0.202687 0.226495)
(0.325364 0.143712 0.0215531)
(0.0943563 0.42867 0.0113874)
(0.228444 0.243037 0.0271696)
(0.387416 0.246158 0.0117601)
(0.0409855 0.363487 0.10649)
(0.113951 -0.216935 0.0362524)
(0.132242 -0.227903 -0.0793654)
(0.808713 0.461421 0.28297)
(0.294583 0.102073 0.0226095)
(0.185709 0.346548 -0.00989062)
(0.296554 0.084095 0.0483445)
(-0.104577 0.780226 -0.0258682)
(-0.452232 -0.273687 0.230381)
(0.143929 -0.117775 -0.0240593)
(-0.102642 -0.372898 -0.126186)
(0.0797976 -0.288613 -0.0374058)
(0.627787 -0.0345771 0.153018)
(1.53529 0.318419 -0.216834)
(0.354676 0.15601 0.0199225)
(0.161183 0.390934 0.0477986)
(0.0478 0.401045 0.0523285)
(-0.324877 -0.133398 0.0145962)
(-0.015518 -0.00928398 -0.0647401)
(0.340349 -0.095376 -0.0167619)
(-0.029462 -0.351141 -0.016793)
(0.162314 -0.267829 -0.0391266)
(0.466122 0.21661 0.229881)
(0.463806 0.1335 -0.0929204)
(0.719117 0.157175 0.00990375)
(0.116358 0.304202 0.254947)
(0.46167 0.239443 0.0464641)
(0.271107 0.520994 -0.0463897)
(-0.045722 -0.0518978 0.0114949)
(0.388808 -0.037311 -0.00661353)
(0.0612329 -0.314559 -0.0863349)
(0.109643 -0.423105 -0.0299577)
(0.233698 -0.0818816 0.0535485)
(1.58605 0.12501 -0.0142806)
(0.38757 0.157603 0.151233)
(0.224805 0.206494 0.130952)
(-0.159536 0.916255 -0.0816869)
(-0.073947 0.00520678 -0.131441)
(0.4709 -0.165428 -0.068231)
(0.102825 -0.142814 0.0607041)
(0.0766233 -0.316072 0.0974557)
(0.226529 -0.114767 0.0967849)
(1.09653 0.552476 -0.167869)
(0.0177189 0.117883 0.0396543)
(-0.0258201 0.389433 0.0679713)
(-0.116121 -0.0534243 -0.14502)
(0.588627 -0.0883654 0.00102317)
(0.103394 -0.150456 0.0714298)
(0.064812 -0.279607 0.0970369)
(0.0597425 -0.342241 0.0222363)
(0.0835638 -0.109845 0.108095)
(-0.151704 -0.0587015 -0.00408383)
(-0.161501 0.0414154 -0.156562)
(0.561991 -0.062165 0.00225701)
(0.213821 -0.136986 0.0569082)
(0.20248 -0.133001 0.0379822)
(0.406497 0.0159754 0.0287064)
(0.193086 -0.0219226 0.149445)
(0.201153 -0.0292734 -0.00784177)
(0.134276 0.0916219 0.0321664)
(0.260679 -0.00231379 -0.0270346)
(0.128873 0.127163 0.0237679)
(-0.24955 0.0149842 -0.00284566)
(0.370039 0.0660971 -0.0165863)
(-0.228083 -0.0159624 0.0463494)
(0.251847 -0.0343449 -0.0800643)
(0.0835151 -0.0243596 -0.0215656)
(-0.174688 -0.0016506 0.0243126)
(0.307815 0.0158975 0.0788257)
(-0.215828 -0.0047637 -0.00756774)
(0.0824818 -0.128563 -0.164646)
(0.0331746 -0.028334 0.0239344)
(0.193477 0.382535 -0.0714231)
(0.0160198 0.250612 -0.0853296)
(-0.19377 -0.193179 0.159209)
(0.697782 -0.0969728 -0.0449534)
(0.278578 -0.097578 -0.203589)
(0.0814223 0.0538561 -0.34287)
(0.0129141 0.392935 -0.135303)
(0.189593 0.158744 0.0257265)
(0.030103 0.614527 -0.125574)
(-0.286653 -0.210303 0.258412)
(0.475376 0.133489 0.000535643)
(-0.00145565 -0.387128 -0.261051)
(-0.0393985 -0.288239 -0.306348)
(-0.0549092 -0.0213042 -0.410507)
(-0.0113491 0.10698 -0.372599)
(0.0134673 0.433532 -0.152741)
(0.128865 0.216805 -0.011148)
(0.29624 0.249734 0.00301906)
(0.097846 0.384459 -0.173474)
(-0.356671 -0.226413 0.184765)
(0.112782 -0.226461 -0.123493)
(-0.106667 -0.144574 -0.114135)
(-0.132658 -0.174911 -0.362001)
(0.0435105 -0.0728213 -0.347316)
(0.0118602 0.178474 -0.254425)
(0.00204846 0.457523 -0.196621)
(0.214064 0.175887 0.0444336)
(-0.0540714 0.751478 -0.208507)
(-0.398762 -0.301188 0.265705)
(-0.114773 -0.0221468 -0.167862)
(0.521946 -0.0600933 -0.13678)
(0.0742588 -0.177606 -0.143398)
(0.0371273 -0.179719 -0.344229)
(0.0572833 -0.040891 -0.467647)
(-0.033081 0.140577 -0.234999)
(0.0357222 0.439104 -0.169941)
(0.165177 0.229358 -0.0639163)
(0.521938 0.214843 0.0152526)
(0.09973 0.189649 0.00690246)
(-0.0991457 -0.00905864 -0.14298)
(0.534062 -0.0642236 -0.0969109)
(0.143345 -0.165644 -0.118713)
(-0.027831 -0.243843 -0.385472)
(-0.0363767 -0.00568892 -0.387904)
(0.026896 0.1008 -0.26215)
(0.086382 0.344079 -0.19304)
(0.509785 0.0897238 0.0174365)
(0.278655 0.511286 -0.284647)
(0.237851 -0.0362872 -0.065307)
(-0.105587 0.0638297 -0.0545873)
(0.483146 -0.048169 -0.0187172)
(0.0612092 -0.260095 -0.334642)
(-0.009425 -0.0113466 -0.349417)
(0.00620863 0.113445 -0.318131)
(0.0635658 -0.00578644 -0.176646)
(-0.222372 0.906198 -0.338366)
(0.242905 -0.0615259 -0.0683948)
(-0.0895687 0.0462959 -0.0115712)
(0.470833 -0.0472692 -0.0216405)
(0.232276 -0.232973 -0.265638)
(0.16011 -0.168287 -0.248687)
(0.443412 0.109845 -0.0117843)
(0.272174 0.00431073 -0.22486)
(-0.137354 0.053969 0.00460017)
(0.552911 -0.0601906 0.0515488)
(0.231144 -0.0549168 -0.0465288)
(-0.196592 0.163312 0.152764)
(0.167389 -0.104757 0.0116409)
(0.151443 0.0487729 0.0272312)
(0.282278 -0.00654429 -0.0034435)
(0.0248421 0.141756 0.0176562)
(0.0846275 -0.0559675 -0.275646)
(0.0518143 -0.194891 -0.160542)
(0.0574054 0.0210801 -0.179491)
(-0.341745 0.03392 0.225014)
(-0.0246364 -0.284286 -0.34205)
(0.163457 -0.0250146 -0.31448)
(0.115021 0.00119816 -0.0862672)
(-0.177091 0.0787179 0.129625)
(-0.0728524 -0.309038 -0.358798)
(0.11809 -0.0675157 -0.443842)
(0.078509 -0.00161426 -0.0315386)
(0.0756673 -0.0718746 -0.191573)
(0.140363 0.419817 0.0239875)
(-0.0203219 0.173964 -0.211628)
(-0.191865 -0.129479 0.228616)
(0.38082 0.212446 -0.0926183)
(0.147353 -0.204922 -0.198476)
(0.118764 -0.256061 -0.214032)
(0.111653 -0.099091 -0.24781)
(-0.0527709 -0.00888863 -0.187498)
(0.0430398 0.0117091 -0.200367)
(0.169536 0.0929196 -0.125976)
(-0.0365849 0.57981 -0.123641)
(-0.243684 -0.168208 0.217468)
(0.43907 0.169833 -0.0506771)
(-0.392562 -0.0485445 0.0801741)
(0.138649 -0.0120293 -0.0206786)
(-0.0825232 0.145029 -0.00735509)
(0.429873 0.00904051 -0.132003)
(0.15475 -0.0238574 -0.22331)
(0.168303 0.0483683 -0.139848)
(0.080777 0.135835 -0.233239)
(0.263526 0.300191 0.0511568)
(0.0651357 0.303825 -0.299139)
(-0.285785 -0.173503 0.252614)
(-0.193323 -0.104724 -0.0665502)
(0.569959 -0.047678 -0.0715082)
(0.116483 -0.00450083 -0.222272)
(0.154547 0.00759562 -0.169105)
(0.0581459 0.0793127 -0.238245)
(0.215947 0.11487 -0.073629)
(-0.121923 0.708533 -0.18551)
(-0.453463 -0.227788 0.297643)
(0.734396 0.284226 0.0237478)
(-0.243204 0.139976 0.0857088)
(0.515463 -0.00897841 -0.0990343)
(0.30111 -0.06621 -0.213365)
(-0.0205016 0.0457429 -0.2526)
(0.157975 0.08467 -0.101865)
(0.0149438 0.27346 -0.19757)
(-0.268423 -0.0174593 0.33966)
(0.599951 0.0988297 -0.0907246)
(0.0606547 -0.152379 0.0386035)
(0.216175 0.0171068 -0.115483)
(-0.138368 0.054639 0.0974982)
(0.46244 -0.0032157 -0.181243)
(0.240893 0.0104163 -0.128362)
(0.1187 -0.0509013 -0.263169)
(0.42217 0.310534 0.0450507)
(0.122039 0.230151 -0.330616)
(-0.093366 0.0676329 -0.0548006)
(0.562438 0.058066 -0.0865333)
(0.158256 0.0305255 -0.178323)
(-0.182069 0.196424 0.233183)
(0.138251 0.0876043 0.123723)
(0.318332 0.00693429 -0.158332)
(0.0718365 -0.026137 -0.207327)
(0.210983 -0.183578 -0.180669)
(-0.0979342 0.174612 -0.137095)
(-0.0477248 -0.0659218 0.180992)
(0.0841058 -0.174145 -0.236482)
(-0.221189 0.0931831 0.078861)
(0.257868 0.135799 -0.102904)
(-0.141946 -0.0510704 0.155644)
(0.113317 -0.117084 -0.243809)
(0.146331 -0.0590655 -0.167027)
(-0.136906 -0.0501544 -0.0687214)
(0.0576482 0.115158 0.110173)
(0.125131 0.0210168 -0.135291)
(0.0237288 -0.0125496 0.154594)
(0.214924 0.11438 0.00219869)
(0.116039 -0.0354548 -0.045448)
(0.122474 0.0314491 0.0520425)
(0.0847394 0.116042 -0.0902898)
(0.0395762 -0.0355321 0.0545722)
(0.178339 0.0693827 -0.0913808)
(-0.0198627 -0.0271762 0.151392)
(0.263757 0.107327 -0.1999)
(-0.176846 -0.0270139 0.222005)
(0.393293 0.171614 -0.146545)
(-0.271214 -0.0490268 0.142903)
(0.0822903 0.0464888 0.0511181)
(0.145131 0.0450878 -0.0954637)
(0.0339462 0.0108479 0.142418)
(0.2287 0.0919781 -0.202082)
(-0.0467285 -0.0254692 0.232707)
(0.339734 0.183568 -0.0300582)
(-0.272177 -0.054961 0.0526798)
(0.0778709 0.00501658 -0.000600918)
(0.154589 0.0793171 -0.0837396)
(0.0376871 0.00646396 0.118048)
(0.229386 0.0865501 -0.164352)
(-0.0508972 -0.00537631 0.248672)
(0.365405 0.15093 -0.300328)
(-0.301348 -0.0407551 0.27151)
(0.177447 0.0814407 -0.090892)
(0.0597559 0.0371835 0.0715897)
(0.231829 0.105401 -0.14602)
(-0.000239396 0.00261506 0.218048)
(0.345344 0.161346 -0.301194)
(-0.235785 -0.0189723 0.21961)
(0.231783 0.0936605 -0.170606)
(0.00787334 0.0308423 0.203994)
(0.321049 0.133057 -0.279615)
(-0.0720261 0.00281366 0.311758)
(0.0606659 0.0369663 0.116784)
(0.322661 0.139575 -0.212195)
(0.111096 0.0214923 -0.092958)
(0.0235448 0.00686082 0.104398)
(0.0774192 0.00442368 0.062842)
(0.126579 0.0282457 -0.0861996)
(0.00669398 -0.00333224 0.145972)
(0.106019 0.0187915 -0.0791369)
(0.105493 0.0116203 0.0361988)
(0.104185 0.0264818 0.0530302)
(0.0286299 0.0204942 -0.0110966)
(0.114643 -0.0101483 -0.364806)
(0.115249 0.0383513 -0.365549)
(0.0846783 -0.0317326 -0.112837)
(0.093017 0.0811833 -0.118541)
(0.252737 0.0732626 -0.0272815)
(0.0898198 0.0421242 -0.434232)
(0.0868722 -0.0645674 0.336785)
(0.0956694 0.0693731 -0.399616)
(0.548109 -0.0629685 0.22883)
(0.0594831 0.0226826 -0.114819)
(0.185355 -0.0324551 0.201309)
(0.163995 0.098786 -0.0722563)
(0.131128 0.0681816 -0.458943)
(0.0601469 -0.188309 0.484935)
(0.115778 0.318734 -0.429521)
(0.155573 -0.0386128 0.284305)
(0.106708 0.0364827 -0.160066)
(0.0800893 -0.31043 0.220311)
(0.060102 0.171345 -0.131843)
(0.0208141 0.084753 -0.404472)
(0.0370122 -0.178243 0.432447)
(0.0123503 0.170958 -0.387936)
(0.1043 -0.0950596 0.166378)
(0.0849878 0.0889155 -0.255195)
(0.0710105 0.0160017 0.202122)
(0.084452 0.0889696 -0.238803)
(0.297389 -0.00793596 0.179525)
(0.185475 -0.0259771 0.0431214)
(0.11575 -0.00681835 -0.0123487)
(0.176523 -0.00103201 -0.0714995)
(0.193692 0.0575496 -0.0912684)
(0.300773 -0.0983774 0.172978)
(0.0555953 -0.0255944 0.024459)
(0.17918 -0.000806666 -0.127074)
(0.15606 0.0671726 0.0743637)
(0.174283 0.00933934 -0.133906)
(0.188884 -0.0139647 0.0475757)
(0.101463 0.00737227 -0.0107793)
(0.0900007 -0.0255572 0.0275626)
(0.104555 -0.000901303 -0.00721202)
(0.580476 -0.0453306 0.207639)
(0.284968 0.0527492 -0.00250339)
(0.152888 0.0649675 -0.0963909)
(0.268573 -0.0132351 0.174276)
(0.220029 0.0438884 -0.0480143)
(0.101975 -0.00933629 0.00100268)
(0.186121 0.0218566 -0.141648)
(0.192287 -0.0368872 0.143052)
(0.172586 -0.0107789 -0.236239)
(0.119468 -0.0467097 0.0209208)
(0.148617 -0.0130921 -0.0022746)
(0.384973 0.0131054 -0.0101051)
(0.260036 0.0492823 -0.0287387)
(0.0912407 -0.164003 0.174958)
(0.190857 0.169682 -0.134848)
(0.76147 -0.0617438 0.0449705)
(0.108615 -0.230181 0.0234364)
(0.114203 0.201756 0.0235882)
(0.209524 0.0392911 -0.131641)
(0.0919088 -0.278134 0.266933)
(0.139136 0.127019 -0.18462)
(0.0858625 -0.187858 0.00543782)
(0.742873 0.580119 0.217595)
(0.168232 -0.00521025 -0.304102)
(0.166231 0.0248659 0.133393)
(0.105061 0.0871514 -0.252003)
(0.449502 0.071136 -0.0217881)
(0.292436 -0.121835 -0.223006)
(0.126565 0.0674199 0.189007)
(0.0656872 -0.0685161 -0.343683)
(0.345221 0.131656 -0.0381017)
(0.143033 -0.169843 0.023896)
(0.395698 -0.0629685 0.0186186)
(0.122016 0.118132 -0.183257)
(-0.104436 -0.370577 0.293238)
(0.0246888 0.240686 -0.157247)
(0.0484232 -0.241942 -0.00134703)
(0.751953 0.546286 0.207119)
(-0.0444796 -0.416738 -0.0434473)
(-0.0336366 0.219924 0.0693412)
(0.0994779 0.0821963 -0.258248)
(0.059122 -0.212876 0.336293)
(0.110062 0.129737 -0.195354)
(0.739636 0.555034 0.224908)
(0.0909329 -0.250189 -0.0105757)
(0.685447 0.141666 0.247323)
(0.1644 -0.0258994 -0.346814)
(0.0885316 0.0138847 0.324682)
(0.0208416 0.164039 -0.308792)
(0.466348 -0.00930484 -0.0184796)
(0.743348 0.132668 0.269188)
(1.35178 0.375456 -0.30485)
(0.123717 -0.0958407 -0.358907)
(0.13182 0.0104166 0.298626)
(0.0222053 0.11407 -0.340231)
(1.34588 0.350726 -0.278438)
(0.578603 0.0931129 -0.0176316)
(0.376184 -0.0326584 -0.196898)
(0.16449 0.107266 -0.343237)
(-0.0699273 -0.0708958 0.247561)
(0.106392 0.19082 -0.420416)
(0.32791 -0.105328 -0.0255188)
(0.589589 0.0976656 -0.0499134)
(0.165568 -0.0253325 0.11373)
(1.60311 0.196069 0.0179293)
(0.351029 0.0247941 -0.0615845)
(0.335389 -0.026537 -0.149152)
(0.228644 -0.0393733 0.023343)
(0.103122 0.00304286 -0.0103604)
(0.277418 -0.0391343 -0.119976)
(0.146188 0.0192063 0.0518513)
(0.341591 -0.138346 -0.0575937)
(0.0330767 -0.0162278 -0.0156162)
(0.336952 -0.034008 -0.15661)
(0.294803 -0.0632981 -0.0599102)
(0.0981758 0.0148173 -0.00636387)
(0.0783014 -0.027042 0.00290327)
(0.0937116 0.00674084 -0.000207219)
(0.292945 -0.038029 -0.121301)
(0.140096 0.0236932 0.0700457)
(0.213116 -0.0750432 -0.0858629)
(0.15606 0.0302652 0.125102)
(0.66794 -0.0883325 -0.0552486)
(0.576263 -0.0892971 -0.16813)
(0.0898966 -0.0102339 -0.0386931)
(0.260299 -0.0443731 -0.0105775)
(0.526712 -0.112689 -0.220887)
(0.199299 0.157337 0.13552)
(0.219978 -0.211735 0.045721)
(0.153354 0.199559 -0.00483299)
(0.647814 -0.0639522 -0.0520479)
(0.526187 -0.0906232 -0.138429)
(0.152687 -0.293813 -0.138344)
(0.153039 0.235443 0.0730334)
(0.113223 -0.17503 -0.0301522)
(0.812204 0.4973 0.276388)
(0.478379 -0.125909 -0.201601)
(0.140532 0.164067 0.137522)
(0.0803778 -0.235542 -0.182751)
(0.135775 0.146053 0.148764)
(0.477747 0.0735906 0.0394887)
(0.828603 0.504398 0.288122)
(0.125119 0.0717568 -0.276657)
(-0.001246 0.00245048 0.296972)
(0.110132 0.00813224 -0.339839)
(0.00545618 0.163051 0.29829)
(0.390477 -0.0554116 0.0432604)
(0.786479 -0.0198038 0.214276)
(1.53187 0.315524 -0.223014)
(0.0310102 0.168612 -0.371206)
(0.0304421 -0.0648887 0.350863)
(0.0545623 -0.0433923 -0.404696)
(0.124692 0.177111 0.305217)
(0.520534 0.0453135 0.0414319)
(0.517987 0.253973 0.168161)
(0.543078 0.155671 -0.265556)
(0.0758454 0.251281 -0.271997)
(0.0426071 -0.0424248 0.307038)
(0.0647909 0.0384157 -0.397469)
(0.135614 0.159137 0.308795)
(0.943122 0.172691 0.0499014)
(0.172316 -0.0226228 0.0605697)
(1.60694 0.155658 -0.014748)
(0.0537847 0.192334 -0.252046)
(0.0852514 0.0438637 0.310065)
(0.0706863 0.0359683 -0.336317)
(0.0667269 0.134522 0.255059)
(0.329459 -0.0275991 -0.11962)
(0.0975083 0.0196004 0.228234)
(0.0831518 0.0306083 0.212632)
(0.32008 -0.0374381 -0.123997)
(0.208155 -0.0266202 0.00984172)
(0.0969124 0.0215569 0.17671)
(0.07702 -0.0467862 -0.300315)
(0.13059 0.138271 0.256852)
(0.65724 -0.0998522 -0.0540641)
(0.501315 -0.0436243 -0.10127)
(0.0896555 0.0208112 0.213644)
(0.0477948 -0.128995 -0.282419)
(0.1739 0.147827 0.219594)
(0.0338497 0.162509 -0.422669)
(0.0825484 -0.0248915 0.400927)
(0.0506937 0.107983 -0.392262)
(0.0404158 -0.0137691 0.377343)
(0.0690383 0.0821447 -0.247247)
(0.0270636 -0.15824 0.315188)
(0.0972427 0.0627374 -0.193646)
(0.0318696 0.0852729 -0.452638)
(0.107991 0.00898933 0.380944)
(0.0370492 0.0914226 -0.439244)
(0.022019 0.06266 0.297211)
(0.122886 0.0233703 -0.285509)
(0.0235275 0.00758911 0.353372)
(0.0142521 0.114924 -0.294931)
(0.0770883 0.0470318 -0.465278)
(0.113132 0.019867 0.370674)
(0.0659477 0.0892298 -0.47109)
(0.025162 0.123487 0.332394)
(0.0850697 0.0451595 -0.328993)
(0.035822 0.00910915 0.353688)
(0.0395514 0.0858921 -0.33776)
(0.457696 0.0137935 0.231116)
(0.786897 -0.0960982 0.101599)
(0.449012 -0.0496971 0.248609)
(0.55715 -0.0683264 0.196486)
(0.339147 -0.0188361 0.131383)
(0.319672 0.0476945 -0.0372391)
(0.118135 -0.156951 0.207832)
(0.345969 0.091289 0.0609525)
(0.382106 -0.0492781 -0.00464092)
(0.168174 0.143574 -0.157902)
(0.204778 0.0284408 0.110278)
(0.202509 0.0455077 -0.138692)
(0.754387 0.149763 0.254204)
(1.15004 0.0552855 0.148637)
(0.2099 0.141707 -0.23325)
(0.0855212 0.0664492 0.24497)
(1.08991 -0.0197207 0.171864)
(0.178373 0.121617 -0.191342)
(0.772889 0.20874 0.00570294)
(1.41131 0.30351 0.117198)
(0.173813 -0.284003 -0.332551)
(0.0695974 0.2005 0.30822)
(0.117457 -0.092911 -0.370253)
(0.352359 0.1351 -0.0225649)
(0.269823 -0.212333 0.0408605)
(1.31437 0.374073 -0.277943)
(0.438892 -0.00838327 -0.00971033)
(0.130691 0.119708 -0.155016)
(-0.0566811 -0.403351 0.315853)
(0.0619669 0.257769 -0.176349)
(0.14741 -0.27457 -0.0112466)
(0.553533 0.0656803 0.173651)
(-0.0132034 -0.434171 0.0125113)
(0.132761 0.095859 0.0306983)
(0.039337 0.150526 -0.287342)
(0.0233385 -0.21634 0.336571)
(0.13675 0.0617579 -0.220708)
(0.655793 0.109605 0.227593)
(1.39529 0.332589 -0.300027)
(0.0673154 -0.254664 0.100379)
(0.304673 0.387989 0.337515)
(0.394875 -0.0982823 -0.238723)
(0.0856722 0.100802 0.270472)
(0.130277 0.0698443 -0.341763)
(0.418406 0.147641 -0.0142277)
(0.236869 -0.20268 0.0233253)
(0.476624 0.00103003 -0.236079)
(0.502593 0.0606823 -0.0175434)
(0.0218335 0.102921 -0.328112)
(0.0568422 -0.304971 0.366113)
(0.152867 0.235161 -0.114835)
(0.236111 -0.169139 -0.00558672)
(0.150607 -0.326643 -0.0157861)
(0.139525 0.151517 0.0362164)
(0.181867 -0.185116 -0.460944)
(0.152731 0.15652 0.273347)
(0.152846 0.0499837 -0.461012)
(0.452986 0.139501 -0.0832152)
(0.387425 -0.0936037 -0.0991746)
(1.63519 0.207336 0.0514675)
(0.35441 -0.0285427 -0.15667)
(0.0827828 0.181681 -0.47873)
(-0.0221156 -0.247086 0.383706)
(0.136686 0.216883 -0.410238)
(0.200956 -0.0949038 0.13562)
(1.57246 0.166809 -0.0119257)
(0.0463942 -0.279043 0.0496272)
(0.182361 0.120475 -0.00172548)
(0.113155 0.0135933 0.0150749)
(0.0831985 0.0276907 0.0283984)
(-0.010515 0.0369102 0.0114364)
(-0.000325642 -0.0448168 -0.0703072)
(0.060594 0.0269089 0.0033551)
(0.0802613 -0.00969192 0.0294415)
(0.181582 -0.0158102 -0.0290404)
(0.102234 0.00504912 -1.7676e-05)
(0.396092 0.0151375 0.0568732)
(0.192644 -0.0697333 -0.0878897)
(0.188195 0.0378529 0.12456)
(0.176208 0.114846 -0.124513)
(0.0453401 0.0290944 0.206326)
(1.12256 -0.147142 -0.0192529)
(0.749309 -0.145071 0.156389)
(0.433212 -0.0910343 0.0356459)
(0.467842 -0.0241413 0.0221455)
(1.16851 -0.115273 0.0407699)
(0.439838 0.0463662 -0.145635)
(0.408188 -0.00502464 0.0656783)
(1.27494 -0.522168 0.140262)
(0.781318 -0.279683 -0.206108)
(0.637091 -0.120287 -0.157533)
(1.01813 0.0830481 0.0347138)
(0.736113 0.459504 -0.182336)
(0.537048 0.119852 -0.204713)
(0.570743 0.196484 -0.0989269)
(0.326867 0.0843934 -0.101817)
(0.140156 -0.1789 0.0553212)
(0.28994 -0.0950086 0.0955943)
(0.0526724 0.127881 -0.0966433)
(0.162913 -0.223573 0.329571)
(0.0398981 0.220821 -0.327105)
(0.0604296 -0.0594026 0.322661)
(0.810295 0.432379 0.250546)
(-0.0030422 -0.378907 -0.103917)
(0.000724851 0.247712 0.0253126)
(0.0356305 -0.243529 -0.251105)
(0.143183 0.136447 0.157911)
(-0.0231724 -0.288634 -0.25353)
(0.0430465 0.393464 0.366814)
(0.0766748 -0.273561 -0.0672193)
(0.654798 -0.0202492 0.183323)
(-0.0107749 -0.0516669 -0.461318)
(-0.0105026 0.159236 0.272468)
(-0.0135578 -0.14794 -0.256296)
(-0.0396871 0.148463 0.233086)
(0.914284 0.29288 -0.0364933)
(0.745806 0.333133 -0.176688)
(1.31359 -0.0932035 -0.473951)
(1.01965 0.256264 0.039564)
(0.908722 0.255885 -0.144744)
(1.07621 0.356847 0.124767)
(0.458461 0.146304 -0.095575)
(0.173383 -0.320421 0.0742311)
(1.51406 0.343838 -0.192386)
(0.422854 -0.0333267 0.0416487)
(0.0401465 0.159932 -0.0814619)
(0.226326 -0.225005 0.290857)
(0.0366274 0.216424 -0.23057)
(0.054848 -0.067184 0.322254)
(1.57119 0.296872 -0.224764)
(0.077948 -0.266632 0.0224338)
(0.437126 0.319471 0.288783)
(0.0889089 -0.0678832 -0.389729)
(0.102194 0.192648 0.215144)
(0.011879 -0.183706 -0.365162)
(0.0632556 0.172095 0.175081)
(0.765137 0.261725 0.0147078)
(1.15748 0.266283 -0.140022)
(0.979754 -0.200836 0.0988404)
(0.533475 0.345157 -0.0313506)
(0.705955 0.299596 0.274249)
(0.446579 0.107836 -0.0842846)
(0.217373 -0.191716 0.0730848)
(0.601834 0.149672 -0.281268)
(0.584982 0.0655773 0.0681418)
(0.0502218 0.207191 -0.134684)
(0.262383 -0.23231 0.324356)
(0.0696375 0.158974 -0.212704)
(0.105986 -0.00135801 0.351887)
(0.337239 0.137789 -0.0159918)
(0.107787 -0.398948 -0.0625717)
(0.134772 0.135009 0.0131712)
(0.0805629 -0.0335583 -0.454232)
(0.152682 0.165524 0.27919)
(-0.00642808 -0.261902 -0.351306)
(0.0483067 0.136759 0.169791)
(0.399182 0.267464 -0.0439129)
(1.14683 0.27915 0.0286727)
(1.04029 -0.103837 -0.119467)
(0.994378 0.206742 -0.101405)
(1.49285 0.204366 0.0437732)
(0.629959 0.319016 0.0991336)
(0.272769 0.219565 -0.179291)
(0.189815 -0.141742 0.0146945)
(1.6359 0.161219 0.0232491)
(0.449893 0.0422645 0.0601255)
(0.0470503 0.261278 -0.121467)
(0.242497 -0.181145 0.340034)
(0.071476 0.164585 -0.2437)
(0.133081 0.00369277 0.328727)
(1.56055 0.132459 -0.0477577)
(0.0547327 -0.270818 0.0573604)
(0.146569 0.118537 0.015162)
(0.0542073 -0.000823938 -0.414272)
(0.0827211 0.118873 0.21825)
(-0.0232667 -0.221736 -0.281282)
(0.112553 0.110819 0.149618)
(0.265922 -0.0251478 -0.0728633)
(0.201588 0.0296611 0.0469114)
(-0.0167826 -0.0722392 -0.0811792)
(0.155727 0.106679 0.302735)
(0.39326 -0.0263882 -0.116914)
(0.466427 -0.0440576 -0.187693)
(0.463952 -0.0266298 -0.194356)
(0.445549 -0.0184774 -0.0167786)
(0.575863 -0.00572116 -0.0340038)
(0.14562 -0.00262639 0.0458211)
(0.377656 -0.0827018 -0.206317)
(0.138391 0.157972 0.123979)
(0.0197466 -0.116047 -0.305013)
(0.0880333 0.139117 0.397192)
(0.035573 -0.163048 -0.380721)
(0.109868 0.106251 0.412948)
(0.381641 -0.0289407 -0.0464234)
(0.0612949 -0.392222 -0.238543)
(0.075315 0.208538 0.0868395)
(0.00042986 -0.182917 -0.271941)
(0.132521 0.158708 0.370769)