/*--------------------------------*- C++ -*----------------------------------*\
  =========                 |
  \\      /  F ield         | OpenFOAM: The Open Source CFD Toolbox
   \\    /   O peration     | Website:  https://openfoam.org
    \\  /    A nd           | Version:  10
     \\/     M anipulation  |
\*---------------------------------------------------------------------------*/
FoamFile
{
    format      ascii;
    class       volVectorField;
    location    "0.1";
    object      wallShearStress;
}
// * * * * * * * * * * * * * * * * * * * * * * * * * * * * * * * * * * * * * //

dimensions      [0 2 -2 0 0 0 0];

internalField   uniform (0 0 0);

boundaryField
{
    inlet
    {
        type            calculated;
        value           nonuniform List<vector> 0();
    }
    outlet
    {
        type            calculated;
        value           nonuniform List<vector> 0();
    }
    walls
    {
        type            calculated;
        value           nonuniform List<vector> 0();
    }
    drone
    {
        type            calculated;
        value           nonuniform List<vector> 
13275
(
(-0.0169642 -0.00103523 -0.00398269)
(-0.00731553 -0.00702597 -0.00151067)
(-0.00408267 -0.00810516 -0.00228265)
(-0.000242487 0.00026196 0.00163723)
(0.00059229 -0.000157612 0.00144411)
(-0.0100576 -0.00168764 -0.000342984)
(-0.000229705 -0.000313292 0.000606701)
(-0.00277115 -0.00265339 0.000808799)
(-0.00340276 -0.00416144 0.00145252)
(-0.00465337 -0.00547794 -0.00140259)
(-0.00712185 0.000444726 -0.00192064)
(-0.00458998 0.00350198 -0.000282341)
(-0.00380009 0.00427411 0.000632329)
(-0.00460186 0.0024182 -6.67633e-05)
(-0.00229103 0.00622544 0.000725971)
(0.000402658 0.000942872 0.0002)
(-0.00794139 0.0033877 -0.00613234)
(-0.00654242 0.00195559 -0.00829252)
(-0.00936915 -0.00130095 -0.000424296)
(-0.00418311 0.00486033 0.000361451)
(-0.000870061 0.000418953 0.0006524)
(-0.00165512 0.00106679 0.000986677)
(-0.0164418 -0.0099775 0.00127107)
(-0.00227374 -0.00246425 -0.0002153)
(-0.00218224 -0.00163658 -0.000174016)
(-0.00132848 0.000568625 -0.00105655)
(0.000539289 0.00012126 0.00152101)
(-0.0142158 -0.00426064 0.000701053)
(-0.0126042 -0.00325445 0.00144647)
(-0.00217331 -0.00109368 0.000697002)
(-0.00642918 -0.000164702 -0.00663043)
(-0.00698522 0.000831876 -0.00444937)
(-0.00485719 0.00263626 -0.000415308)
(-0.00371917 0.00291728 0.00262238)
(-0.000260511 -0.00315997 -0.000111897)
(-0.00120184 0.00184219 0.00170196)
(-0.0180536 -0.00259114 0.000554429)
(-0.010481 -0.000360202 -0.000147473)
(-0.0106511 -0.00366535 -0.000526932)
(-0.00947535 -0.00363841 -0.000577428)
(-0.00690105 0.00177782 -0.00182232)
(-0.00287368 0.00242062 3.23428e-05)
(-0.00548498 0.00476867 -0.000172209)
(-0.0093086 0.00378386 -0.00888558)
(-0.00444698 0.00234052 -0.000838293)
(-0.00493789 0.00251605 -0.000416627)
(-0.012449 0.000506508 0.00044267)
(0.000254835 0.000740775 -0.000433173)
(-0.00840736 0.00129468 -0.0111459)
(-0.00372689 -0.000378513 -0.00667376)
(-0.00533324 0.00395816 -0.000352037)
(-0.00441743 0.00485224 0.000675987)
(-0.00414187 0.00451752 0.000729639)
(-0.0053512 0.0042111 -0.000485238)
(-0.00371843 0.00454916 0.000406067)
(-0.00449489 0.00376491 -0.000554074)
(-0.00451153 0.00388495 -0.000529512)
(-0.0039231 0.00465853 0.000371714)
(-0.0182683 0.0035105 0.00398755)
(-0.00118641 5.00343e-05 0.000460527)
(-0.00180333 0.00161421 0.0011524)
(-0.0048408 0.00375346 -0.000866409)
(-0.00933491 -0.00348403 -0.00097989)
(0.00175827 -0.000568328 0.00119649)
(-0.00954016 -0.00140653 -0.000404214)
(-0.00990663 -0.00253805 -0.00049355)
(-0.0119758 0.000742519 0.000165442)
(-0.0183631 -0.0037544 4.85851e-05)
(-0.00217487 0.000901768 0.00217689)
(-0.00115002 0.000776487 0.00131083)
(-0.0022127 0.000139594 -0.000897254)
(-0.0033569 -0.00171849 -0.00152028)
(-0.00553952 -0.00408946 -0.00141539)
(-0.00567774 0.000763812 0.000514538)
(-0.00270971 0.000281831 0.00019892)
(-0.00541693 -0.00319523 -0.00159037)
(-0.0033928 0.000502643 -0.000570148)
(-0.0101036 0.00431635 -0.00115426)
(-0.0114292 0.000657998 0.00363516)
(-0.00568584 -0.0016768 0.000438742)
(-0.00102932 0.000269662 -0.00251863)
(-0.00524378 0.00325302 0.00540648)
(-0.00452733 0.00336983 0.00275052)
(-0.00436297 0.00101632 -0.000998095)
(-0.00235424 0.000472651 -0.000659947)
(-0.000674118 -9.61454e-05 -0.0011015)
(-0.00544989 0.000480164 -0.000312296)
(-0.0104249 -0.00209997 -0.000191754)
(-0.0103523 -0.00232092 -0.00019558)
(-0.00653784 -0.00326286 0.00200963)
(-0.0115672 0.000941224 -0.00171177)
(-0.00679452 0.000505027 -0.00125028)
(-0.013214 -0.002876 -0.000599843)
(-0.00828241 -0.00154231 -0.000694027)
(-0.0138209 8.06042e-05 -0.00133719)
(-0.00882305 -0.00178971 -0.000865309)
(-0.00899245 0.00042723 -0.00117533)
(-0.0122959 -0.00178164 -0.00196533)
(-0.00918229 -0.00148361 -0.0016063)
(-0.00950192 -0.00163633 -0.000571411)
(-0.0102901 -0.00192798 -0.000621073)
(-0.00851405 -0.000425681 -0.000112245)
(-0.00876645 -0.000478922 1.83588e-06)
(-0.0153494 -0.00188912 0.000634188)
(-0.00558256 0.00103174 -0.000943514)
(-0.0155333 -0.00182284 0.000516469)
(-0.0148222 -0.00180084 0.000426135)
(-0.00445163 0.000914316 -0.00142884)
(-0.0151501 -0.00174391 0.000342392)
(-0.00258641 0.0001973 0.00144852)
(-0.00183467 0.000168019 0.00127031)
(-0.00451462 0.000923194 -0.00141475)
(-0.00155484 0.00262266 -0.000142845)
(-0.00224465 0.00237385 -0.000195972)
(-0.00251784 0.000307639 0.00136349)
(-0.0218216 0.0095934 -0.00107681)
(-0.00822194 -0.000332082 -0.00018135)
(-0.00695679 0.000596339 -0.000433373)
(-0.0106642 0.000197686 0.000130863)
(-0.000843614 -8.12754e-05 -0.000232521)
(-0.00027846 6.26273e-05 0.000179498)
(-0.000745642 3.31138e-05 0.000221927)
(-0.000233367 0.000102978 0.000229181)
(-0.000885437 4.40902e-05 -0.000302299)
(-0.000337392 3.28066e-05 0.000191146)
(-0.000802024 -3.17205e-05 0.000141256)
(0.00016709 -6.52611e-06 0.000153293)
(-0.00355862 0.000318144 -0.000618275)
(-0.00300805 0.000233552 -9.24935e-05)
(-0.00254329 -0.00280747 5.2993e-06)
(-0.00265053 -0.00226837 -6.73464e-05)
(-0.00134646 -0.00147446 -0.000251805)
(-0.00248202 -0.00209178 -0.000313784)
(-0.00257525 -0.00216155 -8.95094e-05)
(-0.00157619 -0.00166495 -5.78211e-05)
(-0.0158501 -0.000676511 -0.0048954)
(-0.00802258 -0.00345168 0.0015712)
(-0.00410767 -0.00410024 0.000226154)
(-0.0188866 -0.000720324 0.00112846)
(0.000104614 -0.00118669 0.000118725)
(9.12884e-05 0.000562228 -2.39202e-06)
(-0.000596221 0.000385155 -0.000290688)
(-0.000211455 6.23064e-05 0.00010839)
(-5.35298e-05 0.000128705 1.96732e-05)
(-0.00015692 0.000141302 5.96419e-05)
(-0.00044409 0.000188986 0.00110729)
(-0.000420811 0.000226176 0.00109517)
(-0.000552261 -0.000315254 -0.000373537)
(-0.000300038 -2.03486e-06 9.69168e-05)
(0.000232531 1.8936e-05 -3.24893e-05)
(-0.000171021 -0.000148177 3.84253e-05)
(-0.00042557 0.000342844 0.00119483)
(-0.000394842 0.00030858 0.00106172)
(-0.00488847 0.000852724 -0.00235234)
(-0.00365232 0.000464744 0.000422251)
(-0.00240301 0.000224778 0.000606381)
(-0.0165861 0.00208102 0.00243229)
(-0.00203635 0.000252194 0.000586242)
(-0.00295571 0.000252243 0.000880147)
(-0.00450025 0.000349528 0.00114792)
(-0.00681936 0.00266367 -0.00497604)
(-0.00352081 0.000782858 -0.00214036)
(-0.00833031 -0.000667395 -0.00100375)
(-0.00607637 0.000316178 -0.00471171)
(-0.0093994 -0.00189454 -0.000295675)
(-0.00613465 0.000870818 -0.000657949)
(-0.00525446 0.000836533 -0.000985905)
(-0.00828153 -0.000446806 -5.02657e-05)
(-0.0107482 0.00131169 -0.00100583)
(-0.0107268 0.00129947 -0.00099971)
(-0.00476461 0.000436655 -0.00035114)
(-0.00344849 0.000392492 -0.000296206)
(-0.00383536 0.000242523 -0.000338541)
(-0.00355807 0.000501774 -0.000366575)
(-0.0102729 0.00334789 -0.00194619)
(-0.00539215 -0.00495559 0.00140175)
(-0.0102181 -0.00101085 0.00153495)
(-0.00201943 0.000175434 0.000915289)
(-0.00155259 0.000240918 0.00100751)
(-0.00421442 0.000366548 0.00184081)
(-0.00220925 0.000218996 0.000935805)
(-0.00479574 0.000100222 0.0015253)
(-0.0034216 0.000212018 0.000489909)
(-0.00264783 0.00016898 0.000377945)
(-0.00309012 0.000153392 0.000472331)
(-0.000131119 -0.000188295 -0.000774947)
(-0.00063593 -6.65177e-06 -0.000529567)
(-0.000609716 -3.43011e-05 -0.000227)
(-0.000403842 2.27783e-05 -0.000693555)
(-0.000372796 0.000101734 -0.000592045)
(-0.000495656 -5.84737e-05 -0.00052467)
(-0.00233563 0.000452717 -0.00284948)
(-0.000459243 -3.30502e-05 -0.000592919)
(-0.000917232 0.000163862 -0.00107318)
(-5.89736e-05 1.36202e-05 -0.000401157)
(-0.000525095 0.00011972 -0.000516161)
(0.000153748 -0.000239104 -0.000197926)
(-0.000159004 0.000115942 -0.000742951)
(-0.000585724 5.1728e-05 -0.00058778)
(-0.000478068 0.000194728 -0.000675534)
(-0.000251282 0.000501685 -0.000298253)
(0.000244971 -0.000169396 0.00021939)
(-0.000614032 -2.3729e-05 -0.000312047)
(-0.00064423 -4.80622e-06 -0.000504657)
(-0.000147921 0.000615303 -0.000266439)
(-0.000194781 0.000344919 -0.000460313)
(7.49359e-05 -0.000464479 0.000161804)
(0.000231853 0.000317819 -0.000145903)
(1.59775e-05 0.000280124 -0.000362678)
(-0.000791037 0.000113627 -0.000132042)
(0.00010446 0.000176165 -0.00029668)
(-0.000591232 0.000313253 -0.000430594)
(0.000454367 -0.000184077 6.84628e-05)
(-0.000339376 -0.000691294 0.000181079)
(-0.00488509 0.00111278 -0.000712015)
(-0.00372332 0.000346403 -0.000667079)
(-0.00564305 0.000993272 -0.000941648)
(-0.00478041 0.000479459 -0.000827079)
(-0.00370968 0.000810286 -0.000468983)
(-0.00320315 0.000435629 -8.83851e-05)
(-0.00455382 0.000513952 -0.000134945)
(-0.00452885 0.000494032 -8.93856e-05)
(-0.00501013 0.00105488 -0.000737076)
(-0.00454922 0.00116147 -0.000284909)
(-0.00380105 0.000352893 -0.000137343)
(-0.00376265 0.000359115 -0.000138888)
(-0.00221454 0.00102087 0.000854672)
(-0.00236167 0.000618417 -1.40715e-05)
(-0.00173186 0.000537542 0.000422396)
(-0.000839945 0.000248746 2.84098e-05)
(-0.000815411 0.000301238 0.000547557)
(-0.00693931 0.00214107 -0.00592934)
(-4.17464e-06 2.41798e-05 0.000937414)
(4.41473e-05 0.000385034 0.0014892)
(-0.00137165 0.000502354 -0.00102658)
(0.000365264 -4.40803e-05 0.0009061)
(-0.00729226 0.00207611 -0.00572841)
(-0.000666949 -0.000556798 0.0001366)
(0.000201438 -0.000179738 0.000483766)
(0.00010124 -0.000407665 0.000312357)
(-0.00053561 -0.000461703 -2.77538e-05)
(-0.000807779 -0.00103389 -5.99579e-05)
(-0.000644696 -0.000959502 5.20308e-05)
(-0.00376218 -0.00110716 -0.00346113)
(-0.00860693 -0.00240701 0.00198056)
(-0.00244981 -0.00274769 0.000154022)
(-0.00335436 -0.0027544 0.000133134)
(-0.00295752 -0.00247252 2.23098e-05)
(-0.010391 -0.00642207 0.004144)
(-0.00311309 -0.00262413 4.12296e-05)
(-0.00971027 -0.00583435 0.00360565)
(-0.00659755 -0.00518756 -0.00106317)
(-0.00933835 -0.000970533 -0.00061391)
(-0.00734605 -0.000961094 -6.28415e-06)
(-0.0108651 -0.00194025 -0.000462043)
(-0.0100475 -0.0014868 -0.000274757)
(-0.0108891 -0.00210757 -0.000587985)
(-0.0109379 -0.00213399 -0.00102628)
(-0.0111152 -0.00199441 -0.000758026)
(-0.00820682 -0.00159836 6.80884e-05)
(-0.0104612 -0.00151829 -0.000462454)
(-0.0110179 -0.00215109 -0.000396731)
(-0.00564175 -0.000463049 -9.51053e-05)
(-0.00458228 0.000788205 -0.000706574)
(-0.0074021 -0.00140406 -0.000520589)
(-0.00441303 0.00066296 -0.000731021)
(-0.00639934 -0.00111006 -1.32263e-05)
(-0.00837833 -0.00184515 -0.000464078)
(-0.00444233 0.000468765 -0.000606246)
(-0.00550495 -0.000109677 -0.00553451)
(-0.00677408 -0.00720988 0.00153543)
(-0.00308592 -0.00043006 -0.00162428)
(-0.00122428 -0.00126104 -0.000112405)
(-0.00122409 -0.0012613 -0.000112484)
(-0.00527396 -0.00547998 0.00110566)
(-0.00127287 -0.00140784 -9.9967e-05)
(-0.000860629 -0.00108205 -0.000113717)
(-0.0043943 -0.00505468 -0.000464123)
(-0.000880817 -0.00113895 -8.6451e-05)
(-0.00120654 -0.00127228 1.52358e-06)
(-0.00120583 -0.00127263 1.33098e-06)
(-0.00504791 -0.00471005 0.0014456)
(-0.00949322 -0.000954502 0.000503296)
(-0.0123268 -0.00217503 -0.000491827)
(-0.00972771 -0.00203799 -0.000520788)
(-0.0100376 -0.00186467 -0.000247894)
(-0.0112878 -0.00214143 -0.000386843)
(-0.0100804 -0.00125075 0.000307923)
(-0.0104313 -0.0023138 -0.000517647)
(-0.0108634 -0.00191631 -0.000390991)
(-0.0104516 -0.0020042 -0.000224693)
(-0.00289861 -0.0023611 -0.000101159)
(-0.00275155 -0.00242491 -8.2173e-05)
(-0.00513581 -0.00313008 -0.00160321)
(-0.0088807 -0.0011096 0.00103379)
(-0.00925916 -0.00127219 0.000872121)
(-0.00336329 -0.00264765 -0.000275085)
(-0.00794866 -0.0010369 0.000927537)
(-0.00317922 -0.0025269 -0.000331301)
(-0.00880296 -0.00101024 0.000889169)
(-0.0122034 -0.00187799 -0.000701235)
(-0.00800804 -0.000320915 -0.00118054)
(-0.00785584 -0.000113774 -0.00135518)
(-0.00198713 -0.00197191 -0.000208207)
(-0.00198725 -0.00197153 -0.000208157)
(-0.0121516 -0.00199005 -0.000696538)
(-0.00916878 -0.000294972 -0.00137295)
(-0.012599 -0.00205261 -0.000843262)
(-0.00979331 -0.00185433 -0.000288191)
(-0.0124487 -0.00211888 -0.000859711)
(-0.00748734 -0.00101901 0.000271073)
(-0.00962552 -0.00169854 -0.00037867)
(-0.00961669 -0.00169693 -0.000375378)
(-0.00938806 -0.0020756 -0.00041594)
(-0.00900576 -0.00149799 -0.000482448)
(-0.0144577 -0.00540175 0.00347966)
(-0.00698899 -0.00314476 0.00136743)
(-0.00463695 -0.000235339 -0.000547832)
(-0.00836352 -0.00089826 3.04263e-06)
(-0.00575119 -0.0002517 -0.000479765)
(-0.00918824 -0.00115388 4.37926e-05)
(-0.00952729 -0.00059536 -3.71067e-05)
(-0.00909862 -0.000899796 5.69903e-05)
(-0.00680359 -0.000531973 0.00012815)
(-0.00935559 -0.000409944 3.54591e-05)
(-0.00374044 -0.00351621 -1.67404e-05)
(-0.0143052 -0.00310277 0.00260152)
(-0.00431113 -0.00430416 -0.00013409)
(-0.0141889 -0.000339555 0.00114808)
(-0.0141643 -0.00331461 0.00287428)
(-0.015866 -0.00139621 -0.00041638)
(-0.00665709 -0.00178313 0.000375675)
(-0.00712749 -0.00202773 0.000430264)
(-0.0127103 -0.00238334 0.00168982)
(-0.0223361 -0.00289484 0.000203229)
(-0.00717622 -0.00131075 0.000117444)
(-0.00463261 -0.00192724 0.00193612)
(-0.00615679 -0.00105022 9.94011e-05)
(-0.0127638 -0.00284951 0.0022786)
(-0.00489955 -0.00206873 0.00220183)
(-0.0066111 -0.00132939 0.000153678)
(-0.00673955 -0.00102244 6.83729e-05)
(-0.0177491 -0.00055 -0.0009849)
(-0.0138645 -0.00149055 -5.39104e-05)
(7.83698e-05 -0.000380041 1.05306e-05)
(-0.0169701 -0.000158442 3.5306e-05)
(-0.000435058 1.3005e-05 -0.000267697)
(-0.0162309 -0.00104897 -0.00077659)
(-0.000115696 -0.000456505 -2.6e-05)
(-0.0168764 -0.000432876 -8.14758e-05)
(-0.000722976 0.000167664 -0.000163443)
(0.000304279 9.69349e-06 -8.77011e-05)
(7.4291e-05 4.12457e-05 -5.36744e-05)
(-0.0006897 -1.63495e-06 0.000225778)
(-0.000748513 0.000259553 -4.20466e-05)
(0.000380583 0.000218165 0.000360174)
(-0.000727785 -0.000116018 0.000218609)
(6.45512e-05 0.000231301 0.000273088)
(-0.000647253 8.64502e-05 0.000816542)
(-0.00160546 0.000952317 0.00442757)
(-0.000783389 1.76802e-05 0.000685799)
(0.000412078 0.000188051 0.000312548)
(-0.00071081 -0.000173302 0.000140413)
(-0.000660436 0.000213756 0.000707218)
(-0.000594417 0.000198028 0.0011093)
(-0.00061206 0.00010871 0.00089122)
(-0.00129041 0.000508671 0.0026359)
(-0.00157898 0.000755125 0.00446363)
(-0.00148331 0.000541587 0.00291078)
(-0.000622155 -0.00029105 -0.000198825)
(-0.000418349 0.000499029 -0.000274081)
(0.000318215 -9.39378e-05 -4.26369e-06)
(-0.000785909 0.000403279 -9.20553e-05)
(-0.000849084 -0.000144385 -0.000101453)
(0.000368486 -0.000214513 0.000346855)
(4.75882e-05 -0.000226967 0.000252441)
(-0.000816975 0.000265364 8.73307e-05)
(0.000296075 -0.000332994 0.000265414)
(0.000349166 -0.000177706 0.000113856)
(0.000189494 0.000392516 -0.00017611)
(-8.83263e-05 0.000605985 -0.000132463)
(-0.000358934 -0.000671527 0.000124296)
(-0.000758792 -0.000502922 0.000153872)
(0.000293953 -0.000347728 9.7236e-05)
(-5.15003e-05 -0.000724581 0.000262777)
(-0.000243118 -0.000720416 0.00025872)
(-6.59014e-05 0.000487667 0.000377612)
(-0.000457296 -0.00050062 0.000248205)
(-0.000396096 0.000324164 0.001248)
(0.0003831 -0.000215694 0.000289651)
(-0.000642524 0.000199903 0.000734653)
(-0.000950152 3.681e-05 0.000104714)
(-0.000443266 0.00047141 0.00111023)
(-0.00061668 0.000104963 0.000685195)
(5.71242e-06 -0.000214934 2.74691e-05)
(-0.00326678 0.000259401 0.00205149)
(-0.000522177 0.000288162 0.00100837)
(-0.000133817 0.000655025 0.000513478)
(-0.000881491 -7.62413e-05 0.000527263)
(-0.00039334 4.0171e-05 0.000738016)
(-0.000189394 0.000248029 -0.000233796)
(-0.00348975 0.000414687 0.000385932)
(-0.00636914 0.00100962 0.00300066)
(-0.0029579 0.000272599 0.000757754)
(-0.00276915 0.000259495 0.000644896)
(-0.0049423 0.000502285 0.00125119)
(0.000507363 -0.000894131 0.00117809)
(0.000267952 -0.000532827 0.000287506)
(-0.00333337 0.0035745 0.000623894)
(-0.00354691 0.00380552 0.00066229)
(-0.00338637 0.00352593 0.00063243)
(-0.00345992 0.00370184 0.000645853)
(-0.00355027 0.00381296 0.00066299)
(-0.00932082 0.0103096 0.000876901)
(-0.00282682 0.000339443 0.00117531)
(-0.00689712 0.00139582 0.00485335)
(-0.00686944 0.00107849 0.00488005)
(-0.00398158 0.000249394 0.00197335)
(-0.00371059 0.000495876 0.0022487)
(-0.00397332 0.000594986 0.00252174)
(-0.00369404 0.00033158 0.00198015)
(-0.00375176 0.000453579 0.00219714)
(-0.0167356 0.00249459 0.00255478)
(-0.00735513 0.000876049 0.0012908)
(-0.00735074 0.000877027 0.00129152)
(-0.00735481 0.000877915 0.00129263)
(-0.0185574 0.00665641 -0.00291439)
(-0.0124367 0.0042442 -0.00181328)
(-0.00402326 -0.00303019 0.00137467)
(-0.00868556 -0.00150972 0.000129085)
(-0.00622011 -0.0126149 -0.00330802)
(-0.00861596 -0.00119685 1.21031e-05)
(-0.00375971 -0.00444401 0.00183316)
(-0.00884873 -0.00157353 0.000556552)
(-0.00317647 -0.00333541 0.0016369)
(-0.0092105 -0.00114668 0.000440253)
(-0.00140608 0.000553807 0.00280326)
(-0.00171863 0.000289058 0.00111917)
(-0.0042294 0.000467061 0.00269346)
(-0.0019969 0.000212214 0.00135468)
(-0.00130673 0.000479298 0.00274192)
(-0.00132027 0.000419228 0.00244226)
(-0.00207806 0.000203252 0.00147951)
(-0.00241608 0.000217554 0.00102101)
(-0.00526571 0.000407988 0.00143773)
(-0.0019959 0.000180892 0.000850521)
(-0.002798 0.000165497 0.000407)
(-0.0024408 0.000175555 0.000402337)
(-0.00259395 0.000279882 -0.00132514)
(-0.00199563 0.000194807 -0.000958936)
(-0.0039211 0.000433657 -0.00198314)
(-0.00417465 0.000380561 -0.000245555)
(-0.00440622 0.000360002 -0.000261038)
(-0.00675343 0.00100156 -0.00384254)
(-0.00234598 0.00018308 -0.000845563)
(-0.00399236 0.000379057 -0.001407)
(-0.000945371 0.000248828 -0.000652429)
(-0.00165677 -0.000729084 -0.00174025)
(-0.00146644 -0.000984506 -0.000608363)
(-0.00132607 0.000371757 -0.00212682)
(-0.00685351 -0.00585337 -0.000544587)
(-0.00466363 -0.00389621 -0.000381898)
(-0.00737649 -0.00562653 -0.00162883)
(-0.0033433 -0.00278658 -0.000477903)
(-0.00485202 -0.00352872 -0.00178425)
(-0.0150315 -0.00243643 0.000884309)
(-0.0110392 -0.010567 0.00250038)
(-0.0140853 -0.00225061 0.000834119)
(-0.000857798 -0.000940336 0.00176424)
(-0.00503286 -0.000886674 -0.00699364)
(-0.00192798 -0.000628669 -0.00253224)
(-0.0014975 0.000381616 -0.00347646)
(-0.00350216 0.000500715 0.000372517)
(-0.00360047 0.000504787 0.000443241)
(-0.00258312 0.000326501 0.000304588)
(-0.00918086 -0.00131697 -0.000143343)
(-0.00143253 -0.000103431 -0.000773775)
(-0.00146637 -0.000107449 -0.000733733)
(-0.00389834 0.000517889 -0.000614236)
(-0.0034924 0.000490949 -0.000611283)
(-0.00153895 0.000336524 -0.00296688)
(-0.00780516 -0.000256205 -0.000254107)
(-0.00455775 0.000614475 -0.00039406)
(-0.00256628 0.000389025 -0.000283266)
(-0.00716076 -0.00122785 -0.000213905)
(-0.00940138 -0.00191794 -0.000377343)
(-0.0087818 -0.00191314 -0.000411322)
(-0.00956483 -0.000522853 -0.00295365)
(-0.0103577 -0.000759708 0.000427036)
(-0.000149798 -0.000701402 -5.04078e-06)
(-0.0122911 0.00829956 0.000162819)
(-0.00361409 0.00044881 -0.000544976)
(-0.00467521 0.000572606 -0.000534224)
(-0.00493449 0.00122524 -0.00119593)
(-0.00883282 -0.000457425 -0.00217878)
(-0.00749531 -0.00132316 -0.00241074)
(-0.00416867 -0.000693691 -0.000186565)
(-0.0076331 -0.00091003 4.32254e-05)
(-0.00357031 -0.00088307 0.000140348)
(-0.00904843 -0.000798298 0.000162373)
(-0.00742644 0.00095009 0.00282244)
(-0.0200674 -0.00288925 0.00205628)
(-0.00973699 -0.00223797 0.00163091)
(-0.00785296 0.000933147 -0.00183695)
(-0.0035302 0.000419989 0.00189335)
(-0.000588486 -3.00206e-05 -0.00166792)
(-0.00867877 0.00330825 0.00102861)
(-0.00485496 0.0012972 -0.000320703)
(-0.00308302 0.000356717 -0.000457353)
(-0.00058581 -0.000600698 0.000744263)
(-0.00188043 -0.00129799 0.0016266)
(-0.00164817 -0.000644222 0.00225825)
(-0.00124129 -0.00168959 0.00080301)
(-0.00175233 0.000234664 -0.000590102)
(-0.00384756 0.000792304 -0.00103818)
(-0.00850437 0.000602345 -0.000676737)
(-0.00768266 -5.80908e-05 -6.81507e-05)
(-0.00787107 0.00118893 0.000137953)
(-0.00289595 0.000411153 -0.000221417)
(-0.00309645 0.000578841 -0.000479656)
(-0.00529289 -5.97845e-05 0.000477404)
(-0.00134405 -4.76488e-05 -0.00292608)
(-0.00354437 -0.00452314 0.000271697)
(-0.000682248 -0.00103269 -0.000325625)
(-0.00068239 -0.00103258 -0.000325641)
(-0.00340043 -0.00107878 -0.00441431)
(-0.00468887 -0.00650609 -0.00252388)
(-0.00211375 -0.00239729 0.000793701)
(-0.000579888 -0.00074143 -0.000288205)
(-0.000857598 -0.00141949 -0.000231005)
(-0.00270586 -0.00372484 -4.49629e-05)
(-0.00299536 0.000124224 -1.02209e-05)
(-0.00720838 -0.000952398 0.000203996)
(-0.0100821 -0.00189477 -0.00018254)
(-0.0111349 -0.0039195 0.00411926)
(-0.0085497 -0.00150332 -0.00041148)
(-0.00786541 -0.00636852 0.000832148)
(-0.00573825 -0.00460045 0.000575147)
(-0.00570107 -7.02181e-06 -0.00034911)
(-0.00582516 4.39168e-05 -0.00015316)
(-0.00684981 -0.000498844 -3.93026e-05)
(-0.0159192 -0.00361369 0.00244752)
(-0.00767872 -0.00142338 0.00109737)
(-0.00991803 -0.00212199 -0.000405456)
(-0.0100428 -0.00230535 3.82506e-05)
(-0.01018 -0.00177199 -0.000259636)
(-0.0103885 -0.00215316 -2.79425e-05)
(-0.00593176 0.00149472 -0.00109253)
(-0.00534416 0.00104583 -0.000550553)
(-0.00755106 -0.000739422 -0.000622493)
(-0.0047393 0.000152484 -0.000828684)
(-0.00927236 -0.00226193 1.49508e-06)
(-0.00990307 -0.00232871 -0.000246119)
(-0.00818664 -0.00200318 -0.000125464)
(-0.00199479 -0.00198609 1.33111e-05)
(-0.00199534 -0.00198556 1.31706e-05)
(-0.00482598 -0.00485218 0.00106573)
(-0.00514683 -0.00522871 -0.00116051)
(-0.00404767 -3.60061e-05 -0.00232966)
(-0.00400708 0.000398178 -0.00175258)
(-0.00312121 0.000224204 -0.00150334)
(-0.010137 -0.00150091 -0.000688881)
(-0.00941823 -0.00163461 -0.000455041)
(-0.0123111 -0.00254012 -0.000327263)
(-0.0109563 -0.00238889 -0.00046782)
(-0.0137256 -0.00314894 -0.000679424)
(-0.00753254 -0.00126292 -0.000443283)
(-0.00942751 -0.00170368 -0.000433701)
(-0.00863726 -0.00148767 -0.000468202)
(-0.00400661 -0.0031239 0.000341814)
(-0.00544958 -0.00432152 0.000588081)
(-0.011831 -0.00662325 -0.00446434)
(-0.00645786 -0.00157288 0.00167697)
(-0.00905428 -0.00135594 0.00101031)
(-0.0128412 -0.00134137 -0.000695075)
(-0.00682752 -0.00454422 0.00158839)
(-0.00920647 -0.00146346 -0.000156119)
(-0.00887276 -0.00117497 0.000544239)
(-0.0105465 -0.000814116 -0.000989544)
(-0.00676238 -0.00545445 -0.00297457)
(-0.00509824 0.000184186 -0.00151119)
(-0.0110789 -0.000710088 -0.000722112)
(-0.00948904 0.000776497 -0.00117188)
(-0.0116786 -0.00198591 -0.000823257)
(-0.00483826 -0.00296543 0.000973341)
(-0.00509397 -0.00527548 0.000927607)
(-0.0104618 -0.00108417 -0.00081026)
(-0.0102564 -0.00191462 -0.00123291)
(-0.00932394 -0.00195896 -0.000628199)
(-0.00993547 -0.00196344 -0.00061184)
(-0.00883397 -0.00227272 -0.00502138)
(-0.0065573 -0.00214517 -0.00220433)
(-0.010486 -0.00217742 -0.000645408)
(-0.0108145 -0.00213601 -0.000640933)
(-0.00536673 -0.00570829 0.000869865)
(-0.00857841 -0.000572197 -0.000126131)
(-0.00787656 -0.000372381 -0.000225213)
(-0.00781678 -0.000519504 -0.000238839)
(-0.0103118 -0.00135565 -9.73172e-05)
(-0.00904992 -0.000587292 -3.06835e-05)
(-0.00857821 -0.000496827 0.000118018)
(-0.00916998 -0.000539221 7.00199e-05)
(-0.0151384 -0.00246676 0.0011002)
(-0.014705 -0.00209964 0.00106539)
(-0.0144663 -0.0025034 0.00182176)
(-0.00912779 0.000584695 -0.0002636)
(-0.00928274 0.00120523 -0.000841436)
(-0.0148063 -0.0024028 0.000739181)
(-0.0162851 -0.00138724 4.90201e-06)
(-0.0139844 -0.0019368 0.000671672)
(-0.0142058 -0.00182096 -4.07455e-05)
(-0.0118391 -0.00173535 7.60179e-05)
(-0.00334756 -0.0010471 0.00109869)
(-0.0040677 -0.000315703 0.000282201)
(-0.00401492 -0.000653165 0.000281727)
(-0.0058835 0.00172715 -0.00832549)
(-0.00911657 -0.00311556 0.00232973)
(-0.0164118 -0.00147102 2.09883e-06)
(-0.0169132 -0.00209151 0.000130126)
(-0.00476079 -0.0010198 -0.000648587)
(-0.000450638 -0.000237538 4.14184e-05)
(-0.0075986 -0.000336366 -0.000344354)
(-0.00409743 0.00033205 0.00239122)
(-0.00292772 0.000337529 0.00279194)
(-0.00194944 0.00021674 0.00135942)
(-0.00253964 0.000410572 -0.000943988)
(-0.0030411 0.000289188 0.000389028)
(-0.00534028 0.000394644 0.000824408)
(-0.00375817 0.00030518 0.000446817)
(-0.00396205 0.000356422 0.000471509)
(-0.00495073 0.000477383 0.00132382)
(-0.00364205 0.000228782 0.000532709)
(-0.00325737 0.000317594 0.000475102)
(2.02188e-05 0.000127044 0.000342039)
(-0.00107669 0.00113225 0.000344219)
(-0.00107626 0.0011328 0.00034418)
(-0.00107385 0.00112777 0.000343321)
(-0.000837181 0.00107482 6.43163e-05)
(-0.004141 0.00445033 0.000718908)
(-0.00446027 0.00426613 -0.000703924)
(-0.00651189 0.00429241 -0.000429449)
(-0.00173489 -0.00155671 0.00122528)
(-0.00371852 0.00690165 0.00237831)
(-0.00217002 0.000250804 0.00116667)
(-0.00373139 0.000370368 0.00183513)
(-0.00423062 0.000599513 0.00166266)
(-0.00237216 0.00285233 0.000773576)
(-0.00226533 0.000306094 0.00148193)
(-0.00235492 0.000327038 0.00156633)
(-0.0023273 0.000310563 0.00151241)
(-0.00232403 0.000310828 0.00151219)
(-0.00240197 0.00405174 0.00133718)
(-0.0108183 0.0115658 0.00146792)
(-0.00472379 0.000559426 0.00165216)
(-0.00251908 0.000288205 0.000857931)
(-0.00269488 0.000375311 0.0010539)
(-0.00811419 0.00321297 -0.0010265)
(-0.008119 0.00319999 -0.00102115)
(-0.0080916 0.00319368 -0.00101988)
(-0.00796999 0.00315252 -0.00100776)
(-0.00303977 0.000226616 0.000437495)
(-0.00352415 0.000230401 0.000432433)
(-0.0142355 0.00510932 0.00138422)
(-0.00849805 -0.00141266 -0.0021868)
(-0.0115525 -0.00228524 0.000106831)
(-0.00714456 -0.00140383 -0.00233094)
(-0.0119162 -0.0016638 -0.0014537)
(-0.0133918 -0.000437362 0.00103534)
(-0.0149475 -0.001027 -0.00025468)
(-0.0118313 -0.00117733 -0.000251825)
(-0.0134885 -0.00101342 -0.000169916)
(-0.0146137 -0.000938604 -0.001105)
(-0.00849417 -0.00109038 -0.000269097)
(-0.0212979 -0.00345385 0.0019184)
(-0.0129716 0.00166926 -0.00442259)
(-0.00829514 -0.000829856 0.000354348)
(-0.00723885 -0.000759516 -0.000570455)
(-0.00902966 -0.000938084 0.000811107)
(-0.00391445 0.000577094 0.0031188)
(-0.00252754 0.000371211 0.00171468)
(-0.00248012 0.000205433 0.00124933)
(-0.00396456 0.000541216 0.00202381)
(-0.00210259 0.000299385 0.00108847)
(-0.00218958 0.000174026 0.00055548)
(-0.00447653 0.000513388 0.00145258)
(-0.00456014 0.000567728 0.00143793)
(-0.00568356 0.000405981 0.000886861)
(-0.0025326 0.000202503 0.000467224)
(-0.002739 0.000548204 -0.00159232)
(-0.00284373 0.000590871 -0.00157856)
(-0.00443691 0.000919867 -0.00254568)
(-0.00361636 0.000637199 -0.00208447)
(-0.00444874 0.000871302 -0.00255174)
(-0.00355079 0.000641901 -0.00207504)
(-0.00431548 0.000887925 -0.00234931)
(-0.00346436 0.000692885 -0.00173431)
(-0.00558151 -0.000155815 -0.000532454)
(-0.00327014 0.000318662 -0.000218977)
(-0.0044315 0.000442596 -0.000322923)
(-0.00331236 0.000404007 -0.00025869)
(-0.00438915 0.000409325 -0.000309178)
(-0.00402982 0.000393787 -0.000245408)
(-0.00676855 0.000541167 -0.000536909)
(-0.00446044 0.000383093 -0.000325388)
(-0.00600979 0.00193599 -0.00105682)
(-0.0060403 0.00153073 -0.000696727)
(-0.00574603 0.00173933 -7.43095e-06)
(-0.00529205 0.000739891 -0.00166127)
(-0.00707443 0.00105272 -0.00222512)
(-0.00536656 -0.000528504 -0.000415789)
(-0.0107942 -0.00146357 0.000783171)
(-0.00440836 -0.000852215 0.0014143)
(-0.00589808 -0.000957462 0.000921049)
(-0.00913178 -0.00145088 0.000499284)
(-0.00591121 -0.00111786 0.000718711)
(-0.00526915 -0.0024434 0.00118861)
(-0.00417459 -0.00589563 -0.00193396)
(-0.000871693 7.31999e-05 -5.56582e-05)
(-0.000651869 0.000336949 0.00042689)
(-0.000443473 0.000273283 0.000376229)
(-0.000268792 3.71536e-05 0.000217041)
(-0.000272902 9.57253e-05 0.000164556)
(-0.000250549 0.000132609 0.00020077)
(-0.000782259 9.81369e-05 0.000138977)
(-0.000232962 2.39854e-05 0.000271837)
(-0.000241124 0.000166154 0.000269345)
(-0.000300566 0.000274129 0.000369058)
(-0.000199025 0.000143074 0.000199175)
(-0.000214142 0.000210905 0.000291784)
(-0.00209814 0.000205364 -0.00098085)
(-0.00257191 0.000311445 -0.00133908)
(-0.000921142 -8.06027e-05 -0.00018645)
(-0.00060189 -0.000290003 0.000489955)
(-0.00049819 -0.000139348 0.000456607)
(-0.000353776 -1.08316e-05 0.000245679)
(-0.000293719 0.000134332 0.000178019)
(-0.000328951 3.81118e-05 0.000276752)
(-0.000871782 -8.89934e-05 3.69641e-05)
(-0.000363327 -4.43946e-05 0.000291518)
(-0.000448494 -7.9367e-05 0.000331311)
(0.000104062 -0.000195484 0.000368438)
(5.33551e-05 0.000122634 0.00018969)
(-2.64162e-05 1.20279e-05 0.000339938)
(-0.00253662 0.00046437 -0.00117227)
(-0.00395557 0.000529954 -0.00180729)
(-0.0038645 0.000755013 -0.00171031)
(-0.0030155 0.000298086 -0.000647601)
(-0.00662769 0.000543417 -0.000324948)
(-0.0045324 0.000377521 -0.00030556)
(-0.00428175 0.000366103 -0.000269102)
(-0.00325828 0.000287298 -0.000211973)
(0.000975388 6.44929e-05 -4.12125e-05)
(-0.000887514 6.44375e-05 -0.000216725)
(-0.00106419 -0.00132323 0.000378277)
(-0.00143013 -0.00106806 -0.000264913)
(-0.000171367 -0.000310682 0.000344191)
(-0.000815442 0.000752125 -0.000653553)
(-0.000758108 0.000681761 -0.00210272)
(0.00090436 0.000880823 -0.000452407)
(0.00114964 -6.30375e-05 6.49389e-05)
(0.000897633 0.000805385 -0.000386049)