/*--------------------------------*- C++ -*----------------------------------*\
  =========                 |
  \\      /  F ield         | OpenFOAM: The Open Source CFD Toolbox
   \\    /   O peration     | Website:  https://openfoam.org
    \\  /    A nd           | Version:  10
     \\/     M anipulation  |
\*---------------------------------------------------------------------------*/
FoamFile
{
    format      ascii;
    class       volScalarField;
    location    "0.05";
    object      k;
}
// * * * * * * * * * * * * * * * * * * * * * * * * * * * * * * * * * * * * * //

dimensions      [0 2 -2 0 0 0 0];

internalField   nonuniform List<scalar> 
116800
(
0.090847
0.094677
0.0939319
0.0925817
0.0928393
0.0908472
0.0946775
0.0939306
0.0925818
0.0928378
0.0924355
0.0908473
0.094678
0.0939304
0.0925821
0.0928367
0.0924358
0.0925903
0.092425
0.0908475
0.0946786
0.0939312
0.0925826
0.0928377
0.0924361
0.0925919
0.092425
0.0925096
0.0924397
0.0924754
0.0924528
0.0924647
0.0924577
0.0924616
0.0908477
0.0946792
0.0939323
0.0925833
0.0928376
0.0924365
0.0925901
0.0924256
0.0925079
0.092441
0.0924744
0.0924538
0.0924641
0.0924583
0.0924615
0.0924589
0.0908479
0.0946799
0.0939348
0.0925843
0.0928406
0.092437
0.0925932
0.0924257
0.0925099
0.0924406
0.0924754
0.0924536
0.0924647
0.0924587
0.0924616
0.0924596
0.0924617
0.0908481
0.0946807
0.0939365
0.0925853
0.0928412
0.0924377
0.0925923
0.0924265
0.0925088
0.0924418
0.0924746
0.0924547
0.092464
0.0924593
0.0924616
0.0924598
0.0924624
0.0924578
0.0908484
0.0946816
0.0939391
0.0925864
0.0928438
0.0924383
0.0925946
0.0924269
0.0925107
0.0924416
0.0924757
0.0924545
0.0924647
0.0924599
0.0924617
0.0924611
0.0924616
0.09246
0.0924665
0.0924503
0.0924856
0.0908487
0.0946828
0.0939408
0.0925876
0.0928443
0.0924391
0.0925943
0.0924277
0.0925103
0.0924426
0.0924757
0.0924552
0.092465
0.0924604
0.0924622
0.0924616
0.0924623
0.0924602
0.0924669
0.0924511
0.0924853
0.0924295
0.0925397
0.0924134
0.092667
0.0924101
0.0931098
0.092432
0.095474
0.0936865
0.0908491
0.0946841
0.0939427
0.092589
0.0928453
0.09244
0.0925948
0.0924286
0.0925104
0.092444
0.0924755
0.0924567
0.0924649
0.0924615
0.0924625
0.0924629
0.0924623
0.0924623
0.0924666
0.0924533
0.0924847
0.0924308
0.0925385
0.0924139
0.0926658
0.0924106
0.0931082
0.092432
0.0954713
0.0936866
0.0908496
0.0946858
0.093944
0.0925905
0.0928452
0.092441
0.0925944
0.0924296
0.0925101
0.0924452
0.092476
0.0924574
0.0924661
0.0924618
0.0924634
0.0924636
0.0924637
0.0924621
0.0924681
0.0924535
0.0924852
0.0924317
0.092538
0.0924145
0.0926648
0.0924113
0.0931064
0.0924322
0.0954682
0.0936868
0.0908502
0.0946878
0.093945
0.0925921
0.0928446
0.0924421
0.0925938
0.0924307
0.0925097
0.0924467
0.0924763
0.0924586
0.0924667
0.0924631
0.0924643
0.0924645
0.0924641
0.0924639
0.0924681
0.0924559
0.0924845
0.0924334
0.0925365
0.0924152
0.092663
0.0924121
0.093104
0.0924323
0.0954642
0.0936869
0.090851
0.0946903
0.0939456
0.092594
0.0928433
0.0924434
0.0925927
0.0924321
0.092509
0.0924485
0.0924765
0.09246
0.0924675
0.0924639
0.0924655
0.0924649
0.0924661
0.0924638
0.0924698
0.0924562
0.0924852
0.0924346
0.0925359
0.0924162
0.0926615
0.092413
0.0931013
0.0924326
0.0954595
0.0936871
0.090852
0.0946934
0.093946
0.0925962
0.0928415
0.092445
0.0925916
0.0924335
0.0925088
0.0924496
0.0924777
0.0924603
0.0924692
0.0924649
0.0924666
0.0924664
0.0924662
0.0924666
0.0924695
0.0924594
0.0924845
0.092437
0.0925342
0.0924172
0.0926593
0.0924142
0.0930978
0.0924329
0.0954536
0.0936874
0.0908532
0.0946973
0.0939458
0.0925988
0.0928385
0.0924468
0.0925896
0.0924353
0.0925075
0.0924522
0.0924782
0.0924623
0.0924705
0.0924659
0.0924682
0.0924669
0.0924682
0.0924666
0.0924713
0.0924599
0.0924859
0.0924386
0.0925337
0.0924186
0.0926574
0.0924155
0.0930937
0.0924334
0.0954464
0.0936878
0.0908548
0.0947022
0.0939457
0.0926019
0.0928353
0.0924489
0.0925881
0.0924372
0.0925074
0.0924537
0.0924798
0.0924634
0.0924722
0.0924672
0.0924696
0.0924686
0.092469
0.092469
0.0924719
0.0924627
0.0924859
0.0924416
0.092532
0.0924202
0.0926546
0.0924171
0.0930882
0.092434
0.0954371
0.0936883
0.0908569
0.0947087
0.0939447
0.0926057
0.09283
0.0924515
0.0925847
0.0924398
0.0925053
0.0924573
0.0924801
0.0924661
0.0924737
0.0924684
0.0924717
0.0924691
0.092472
0.0924688
0.0924747
0.0924633
0.092488
0.0924437
0.0925318
0.0924222
0.0926522
0.0924191
0.0930814
0.0924349
0.0954253
0.0936891
0.0908597
0.0947173
0.0939443
0.0926106
0.0928253
0.0924546
0.0925834
0.0924422
0.0925053
0.0924597
0.0924815
0.0924683
0.0924751
0.0924707
0.0924729
0.0924713
0.0924726
0.0924711
0.0924756
0.092466
0.0924882
0.0924477
0.0925299
0.0924247
0.0926484
0.0924215
0.0930723
0.092436
0.0954095
0.0936901
0.0908635
0.0947288
0.0939414
0.0926166
0.0928174
0.0924582
0.0925792
0.0924458
0.0925041
0.0924636
0.0924822
0.0924712
0.0924763
0.0924727
0.0924748
0.0924724
0.0924751
0.092472
0.0924779
0.0924677
0.0924899
0.092451
0.0925299
0.0924278
0.0926448
0.0924247
0.0930606
0.0924376
0.0953884
0.0936916
0.0908689
0.0947446
0.0939391
0.0926244
0.0928108
0.0924621
0.0925776
0.0924493
0.0925048
0.0924667
0.0924838
0.0924734
0.0924782
0.0924745
0.0924762
0.0924745
0.092476
0.092474
0.092479
0.0924702
0.0924906
0.0924551
0.0925288
0.0924315
0.0926398
0.0924286
0.0930448
0.0924397
0.0953586
0.0936937
0.0908766
0.0947666
0.0939267
0.0926338
0.0927985
0.0924664
0.0925734
0.0924544
0.0925045
0.0924711
0.0924851
0.0924769
0.0924796
0.0924773
0.0924781
0.0924766
0.0924786
0.0924758
0.0924813
0.0924729
0.0924919
0.0924601
0.0925277
0.0924362
0.0926333
0.0924337
0.0930239
0.0924426
0.0953137
0.0936965
0.0908882
0.0947977
0.0939165
0.0926462
0.0927865
0.0924711
0.0925694
0.0924603
0.0925048
0.0924748
0.0924869
0.0924789
0.0924817
0.0924789
0.09248
0.0924784
0.09248
0.092478
0.0924828
0.0924756
0.0924929
0.0924643
0.0925261
0.0924413
0.0926243
0.0924398
0.0929975
0.092447
0.095246
0.0937008
0.0909076
0.0948419
0.0938606
0.0926582
0.0927613
0.0924753
0.0925641
0.0924697
0.0925063
0.0924809
0.0924903
0.0924838
0.0924852
0.0924834
0.0924837
0.0924828
0.092484
0.0924823
0.0924865
0.0924805
0.0924957
0.0924718
0.0925257
0.0924485
0.0926162
0.0924453
0.0929573
0.092452
0.0951281
0.0937068
0.090941
0.0949003
0.0938348
0.0926741
0.0927441
0.0924828
0.0925597
0.0924785
0.0925082
0.0924862
0.0924935
0.0924876
0.0924889
0.092487
0.0924875
0.0924864
0.0924877
0.0924864
0.0924901
0.0924854
0.0924984
0.0924787
0.0925252
0.0924573
0.0926084
0.0924535
0.0929144
0.0924626
0.0949549
0.0937137
0.0910109
0.0949721
0.0936448
0.092679
0.0926996
0.0925092
0.0925602
0.0925044
0.092523
0.0925072
0.0925116
0.0925072
0.0925075
0.0925061
0.0925061
0.0925056
0.0925062
0.0925055
0.0925082
0.0925053
0.0925149
0.0925018
0.0925353
0.0924887
0.0925979
0.0924663
0.0928238
0.092472
0.094608
0.0937019
0.0911675
0.0950404
0.0937367
0.0927311
0.0927361
0.0925659
0.0926028
0.0925573
0.0925702
0.0925578
0.0925604
0.0925569
0.0925569
0.0925557
0.0925557
0.0925552
0.092556
0.0925557
0.0925579
0.0925563
0.0925637
0.0925546
0.0925808
0.0925447
0.0926338
0.0925212
0.0928131
0.0925157
0.0941915
0.093606
0.0919536
0.0949885
0.0934867
0.0928988
0.0927906
0.0927086
0.0926921
0.0926775
0.0926714
0.092668
0.0926654
0.0926638
0.0926626
0.0926619
0.0926616
0.0926615
0.0926617
0.0926623
0.0926632
0.0926645
0.0926666
0.092669
0.0926742
0.0926768
0.0927027
0.0926897
0.092785
0.0927219
0.0934414
0.0949316
0.0932573
0.101324
0.100336
0.0996921
0.0981967
0.0932576
0.101331
0.100344
0.0997018
0.0982024
0.097809
0.0932579
0.101333
0.100346
0.0997069
0.0982065
0.0978158
0.0975315
0.097439
0.0932582
0.101334
0.100345
0.0997058
0.0982032
0.0978117
0.097528
0.0974375
0.0973792
0.0973569
0.0973427
0.0973378
0.0973354
0.0973342
0.0973338
0.0932585
0.101332
0.100341
0.099706
0.0982032
0.0978212
0.0975357
0.0974416
0.0973808
0.0973575
0.0973428
0.0973378
0.097335
0.0973342
0.0973338
0.0973343
0.0932587
0.101329
0.100332
0.0996963
0.0981942
0.097815
0.0975303
0.0974407
0.0973804
0.0973576
0.0973427
0.0973382
0.0973358
0.0973343
0.0973342
0.097334
0.0973341
0.093259
0.101327
0.100327
0.0996957
0.0981921
0.0978206
0.0975343
0.0974448
0.0973826
0.0973589
0.0973438
0.0973388
0.0973355
0.0973344
0.097334
0.0973347
0.0973341
0.0973359
0.0932594
0.101324
0.100318
0.0996874
0.0981839
0.0978172
0.0975318
0.0974437
0.0973806
0.0973585
0.0973429
0.0973393
0.0973368
0.0973345
0.0973346
0.0973342
0.0973349
0.0973359
0.0973383
0.0973499
0.0973582
0.0932599
0.101324
0.100314
0.099688
0.0981817
0.0978207
0.097533
0.0974452
0.0973806
0.0973587
0.0973434
0.0973393
0.0973368
0.0973346
0.0973348
0.0973343
0.0973346
0.0973358
0.0973377
0.0973497
0.097358
0.0974043
0.0974364
0.0976086
0.0977625
0.098468
0.0995213
0.100757
0.101779
0.101409
0.0932605
0.101324
0.100309
0.0996862
0.0981777
0.0978213
0.0975342
0.0974463
0.0973817
0.0973601
0.0973449
0.0973394
0.0973365
0.0973347
0.097335
0.0973343
0.0973352
0.0973357
0.0973381
0.0973499
0.0973593
0.0974046
0.0974392
0.0976115
0.0977677
0.0984697
0.0995264
0.100757
0.101782
0.101404
0.0932613
0.101327
0.100308
0.09969
0.0981769
0.0978242
0.0975348
0.0974464
0.0973806
0.0973591
0.0973442
0.0973389
0.0973364
0.097335
0.0973358
0.0973346
0.0973348
0.0973363
0.0973374
0.0973484
0.0973574
0.0974022
0.0974376
0.0976105
0.0977692
0.0984688
0.0995298
0.100755
0.101786
0.101398
0.0932624
0.101331
0.100308
0.0996952
0.0981764
0.0978264
0.0975354
0.0974465
0.09738
0.0973592
0.0973445
0.0973392
0.0973372
0.0973351
0.0973355
0.0973348
0.0973353
0.0973362
0.0973376
0.0973485
0.0973583
0.0974022
0.0974397
0.0976127
0.0977747
0.0984712
0.0995374
0.100756
0.101791
0.10139
0.0932637
0.101339
0.100311
0.0997048
0.0981785
0.0978297
0.0975363
0.0974466
0.0973798
0.0973589
0.0973445
0.0973394
0.0973367
0.0973355
0.0973355
0.0973354
0.097335
0.0973363
0.0973371
0.0973469
0.097356
0.0973993
0.0974375
0.097611
0.0977767
0.0984714
0.0995441
0.100756
0.101797
0.10138
0.0932653
0.101349
0.100316
0.0997172
0.0981812
0.0978319
0.0975346
0.0974446
0.0973763
0.0973565
0.0973426
0.0973395
0.0973382
0.0973357
0.0973361
0.0973354
0.097336
0.0973362
0.0973379
0.0973481
0.0973576
0.0973998
0.0974393
0.0976124
0.0977824
0.0984752
0.0995555
0.100758
0.101805
0.101367
0.0932673
0.101363
0.100323
0.0997353
0.0981877
0.0978355
0.0975351
0.0974443
0.0973767
0.0973561
0.0973426
0.0973391
0.0973374
0.0973359
0.0973361
0.0973357
0.0973359
0.0973365
0.0973374
0.0973469
0.0973545
0.0973965
0.0974357
0.097609
0.0977841
0.0984765
0.0995667
0.10076
0.101816
0.101352
0.0932699
0.101381
0.100332
0.0997549
0.0981933
0.097838
0.0975328
0.0974417
0.0973739
0.0973542
0.0973416
0.0973392
0.0973381
0.0973362
0.0973366
0.0973358
0.0973367
0.0973368
0.0973381
0.0973472
0.0973548
0.097396
0.0974355
0.0976079
0.0977883
0.0984826
0.0995843
0.100764
0.101829
0.101331
0.0932734
0.101405
0.100345
0.099781
0.0982033
0.0978423
0.097533
0.0974407
0.0973747
0.0973538
0.097342
0.0973388
0.0973369
0.0973364
0.0973366
0.0973364
0.0973363
0.0973371
0.0973374
0.0973455
0.0973511
0.0973916
0.0974299
0.0976016
0.0977877
0.098487
0.099603
0.100769
0.101847
0.101305
0.0932778
0.101433
0.100357
0.0998059
0.0982093
0.0978417
0.0975289
0.0974356
0.0973726
0.0973526
0.0973419
0.0973387
0.0973375
0.0973365
0.0973366
0.0973362
0.0973366
0.0973372
0.0973376
0.0973458
0.097351
0.0973911
0.0974278
0.0975986
0.0977887
0.0984936
0.0996248
0.100776
0.101871
0.101268
0.093284
0.101478
0.100378
0.0998403
0.0982204
0.0978437
0.0975279
0.0974311
0.097372
0.0973512
0.0973421
0.0973383
0.0973373
0.0973366
0.0973365
0.0973366
0.0973364
0.0973374
0.0973373
0.0973448
0.0973487
0.0973875
0.0974204
0.0975922
0.0977854
0.0984972
0.0996458
0.100789
0.101907
0.101216
0.0932928
0.10153
0.100397
0.0998672
0.0982231
0.097835
0.097522
0.097425
0.0973706
0.09735
0.097342
0.0973382
0.0973373
0.0973366
0.0973364
0.0973364
0.0973367
0.0973376
0.0973373
0.097345
0.0973475
0.0973862
0.097415
0.0975863
0.0977785
0.0984976
0.0996627
0.100807
0.101958
0.101145
0.093306
0.101632
0.100435
0.0998964
0.0982266
0.0978188
0.0975161
0.0974158
0.09737
0.0973479
0.0973422
0.0973379
0.0973373
0.0973364
0.0973364
0.0973363
0.0973363
0.0973377
0.0973371
0.0973445
0.0973454
0.0973837
0.0974072
0.0975791
0.0977611
0.0984943
0.0996711
0.100838
0.102046
0.101032
0.0933259
0.101757
0.100475
0.0999183
0.0982346
0.0977932
0.0975124
0.0974073
0.097369
0.0973462
0.0973422
0.0973375
0.097337
0.0973364
0.097336
0.0973364
0.0973362
0.0973375
0.097337
0.097344
0.0973438
0.0973807
0.0973983
0.0975708
0.0977358
0.0984966
0.0996714
0.100879
0.102166
0.100882
0.09336
0.102041
0.100566
0.0998792
0.0982159
0.0977286
0.0975019
0.0973921
0.0973668
0.0973435
0.0973416
0.0973371
0.0973369
0.0973361
0.0973361
0.0973362
0.0973361
0.0973375
0.097337
0.0973436
0.0973419
0.097377
0.0973853
0.0975535
0.0976768
0.0984608
0.0995944
0.100965
0.102421
0.100598
0.0934095
0.102442
0.100758
0.0998372
0.098299
0.0976869
0.0975123
0.097384
0.0973676
0.0973433
0.0973424
0.0973377
0.0973375
0.0973367
0.0973364
0.0973366
0.0973365
0.0973377
0.097337
0.0973433
0.0973408
0.0973753
0.0973767
0.0975525
0.0976427
0.0985001
0.0995066
0.101145
0.10272
0.100313
0.0934932
0.103772
0.101295
0.099254
0.0981771
0.0975391
0.0974756
0.0973628
0.0973628
0.0973416
0.0973427
0.0973387
0.0973388
0.0973381
0.0973381
0.0973383
0.0973385
0.0973396
0.0973397
0.0973448
0.0973427
0.0973687
0.0973626
0.0975003
0.097522
0.0983205
0.0989917
0.101576
0.10336
0.0998947
0.0936184
0.107782
0.10327
0.0999673
0.0988566
0.0977627
0.0976103
0.0974814
0.097456
0.0974398
0.0974341
0.0974312
0.0974292
0.0974282
0.097427
0.0974268
0.0974256
0.0974266
0.0974241
0.0974306
0.0974223
0.0974592
0.0974379
0.0976407
0.0976496
0.0988775
0.0994516
0.103134
0.102798
0.103359
0.0962866
0.137398
0.114643
0.108688
0.104307
0.101352
0.102138
0.101438
0.1017
0.101573
0.101643
0.101629
0.101649
0.101653
0.101664
0.101668
0.10168
0.10168
0.101701
0.101686
0.101755
0.101654
0.101964
0.101514
0.1028
0.101417
0.104854
0.107713
0.110702
0.185916
0.0929425
0.1009
0.0999927
0.098243
0.0929428
0.100902
0.100005
0.0982525
0.0977509
0.0975583
0.0929431
0.100903
0.100001
0.0982571
0.0977499
0.0975657
0.0974228
0.0973806
0.0929432
0.100905
0.100002
0.0982544
0.0977488
0.0975591
0.0974203
0.0973838
0.0973486
0.097335
0.0973282
0.0973246
0.0973236
0.0973233
0.0973229
0.0929434
0.100905
0.0999901
0.0982546
0.0977405
0.0975635
0.0974204
0.0973775
0.0973451
0.097334
0.0973281
0.0973249
0.097324
0.0973233
0.0973231
0.0973229
0.0929435
0.100906
0.0999827
0.0982443
0.0977287
0.097553
0.0974192
0.0973846
0.0973497
0.0973362
0.0973286
0.0973248
0.0973239
0.0973232
0.097323
0.0973229
0.0973233
0.0929437
0.100907
0.099973
0.0982449
0.0977246
0.0975553
0.0974177
0.0973799
0.097345
0.0973346
0.0973287
0.0973257
0.0973269
0.0973235
0.0973229
0.0973232
0.0973241
0.0973248
0.0929439
0.100909
0.0999641
0.0982377
0.0977136
0.097547
0.0974146
0.0973826
0.0973488
0.0973378
0.0973297
0.0973252
0.0973245
0.0973241
0.0973229
0.0973238
0.0973233
0.0973297
0.0973285
0.0973328
0.0973394
0.0929442
0.100912
0.0999573
0.0982391
0.0977107
0.0975484
0.0974134
0.0973816
0.0973453
0.0973371
0.0973291
0.0973256
0.0973252
0.0973233
0.0973232
0.0973235
0.0973234
0.0973276
0.0973272
0.0973315
0.0973383
0.0973541
0.0973823
0.0974275
0.0975419
0.0977435
0.0982832
0.10014
0.100524
0.0982812
0.0929447
0.100915
0.0999502
0.0982377
0.0977048
0.0975459
0.0974125
0.0973829
0.0973479
0.097338
0.0973291
0.0973251
0.0973273
0.0973237
0.0973231
0.0973235
0.0973242
0.0973303
0.0973284
0.0973329
0.0973405
0.0973557
0.0973843
0.0974287
0.0975438
0.0977421
0.0982858
0.100136
0.100528
0.0982799
0.0929453
0.100919
0.0999451
0.0982407
0.0977032
0.0975475
0.0974126
0.0973832
0.0973471
0.0973375
0.0973292
0.097325
0.0973248
0.0973244
0.0973237
0.0973254
0.0973241
0.0973259
0.0973264
0.0973314
0.0973383
0.0973532
0.0973826
0.0974273
0.0975433
0.0977389
0.0982878
0.100132
0.100532
0.0982787
0.092946
0.100923
0.0999402
0.0982437
0.0977011
0.097548
0.0974124
0.0973838
0.0973474
0.0973378
0.0973287
0.0973251
0.0973252
0.0973235
0.0973248
0.0973234
0.0973239
0.0973276
0.0973271
0.0973323
0.09734
0.0973546
0.0973852
0.0974296
0.0975464
0.0977381
0.0982919
0.100128
0.100537
0.0982766
0.092947
0.100929
0.0999362
0.0982493
0.0977013
0.0975502
0.097413
0.0973838
0.0973474
0.097337
0.0973294
0.0973256
0.0973264
0.0973242
0.0973238
0.0973243
0.0973246
0.0973259
0.0973272
0.0973311
0.0973391
0.0973529
0.0973838
0.0974285
0.0975469
0.0977358
0.0982961
0.100124
0.100543
0.0982742
0.0929482
0.100936
0.099933
0.0982563
0.0977021
0.0975519
0.0974127
0.0973842
0.097347
0.0973372
0.09733
0.0973259
0.0973251
0.097325
0.097324
0.0973248
0.0973241
0.0973304
0.0973288
0.0973319
0.0973402
0.0973545
0.0973866
0.0974317
0.0975512
0.0977361
0.0983027
0.100119
0.10055
0.0982708
0.0929498
0.100945
0.0999295
0.0982659
0.0977048
0.0975558
0.0974135
0.0973839
0.0973464
0.0973364
0.0973291
0.0973257
0.0973257
0.0973245
0.0973244
0.0973245
0.0973245
0.0973276
0.0973275
0.0973318
0.0973388
0.0973533
0.0973843
0.0974297
0.0975516
0.0977349
0.0983098
0.100115
0.10056
0.0982668
0.0929518
0.100957
0.0999286
0.0982759
0.0977073
0.0975568
0.0974133
0.0973842
0.0973466
0.0973371
0.0973303
0.0973261
0.0973272
0.0973247
0.0973245
0.0973242
0.0973252
0.0973302
0.0973279
0.097332
0.0973377
0.0973538
0.0973858
0.0974325
0.0975561
0.0977378
0.0983199
0.100109
0.100572
0.0982614
0.0929545
0.100972
0.0999287
0.0982919
0.0977136
0.0975646
0.0974155
0.0973823
0.0973453
0.0973353
0.0973286
0.0973255
0.0973272
0.0973259
0.0973258
0.0973248
0.0973271
0.0973256
0.0973264
0.0973325
0.0973376
0.0973532
0.0973832
0.0974293
0.0975555
0.097738
0.0983304
0.100102
0.100588
0.0982546
0.092958
0.100992
0.0999317
0.0983037
0.0977159
0.097561
0.0974148
0.097384
0.0973485
0.0973355
0.0973294
0.0973255
0.0973258
0.0973247
0.0973257
0.0973251
0.0973254
0.097326
0.0973267
0.0973312
0.097336
0.0973533
0.0973838
0.0974324
0.0975599
0.097743
0.0983448
0.100094
0.10061
0.098246
0.0929628
0.101021
0.0999404
0.0983278
0.0977281
0.0975709
0.097418
0.0973775
0.0973468
0.0973344
0.0973295
0.0973257
0.0973264
0.0973247
0.0973257
0.0973249
0.0973256
0.0973258
0.0973259
0.0973315
0.0973351
0.0973542
0.0973815
0.0974309
0.0975575
0.0977464
0.098362
0.10009
0.10064
0.098234
0.0929697
0.101062
0.0999447
0.0983391
0.0977301
0.0975569
0.0974168
0.0973783
0.0973488
0.097334
0.0973296
0.0973259
0.0973258
0.097325
0.0973254
0.097325
0.0973253
0.097326
0.0973261
0.0973313
0.0973341
0.0973547
0.0973796
0.097433
0.0975562
0.0977513
0.0983771
0.10008
0.100683
0.0982199
0.0929807
0.10113
0.0999734
0.0983631
0.0977502
0.0975562
0.0974212
0.0973727
0.0973496
0.0973329
0.0973306
0.0973259
0.0973259
0.0973248
0.097325
0.0973249
0.0973252
0.0973258
0.0973255
0.0973307
0.0973317
0.0973532
0.0973738
0.0974362
0.0975483
0.0977606
0.0983949
0.100086
0.100751
0.0981964
0.0929968
0.101233
0.0999949
0.0983622
0.0977673
0.0975391
0.097427
0.0973661
0.0973491
0.0973311
0.09733
0.0973258
0.0973256
0.0973246
0.0973247
0.0973245
0.0973247
0.0973257
0.0973254
0.097331
0.0973306
0.097354
0.0973654
0.0974409
0.097535
0.0977808
0.0983936
0.10009
0.100857
0.0981693
0.0930304
0.101462
0.100106
0.0983514
0.0978003
0.0975105
0.0974316
0.0973561
0.0973498
0.0973296
0.09733
0.0973252
0.0973252
0.0973244
0.0973242
0.0973243
0.0973243
0.0973253
0.0973249
0.0973303
0.0973286
0.0973527
0.0973559
0.0974428
0.0975054
0.0978055
0.098382
0.100183
0.101068
0.0981197
0.093077
0.101827
0.100294
0.0982612
0.0979055
0.0974761
0.0974531
0.0973482
0.0973518
0.0973277
0.0973298
0.0973249
0.0973249
0.097324
0.0973239
0.0973239
0.0973239
0.0973249
0.0973245
0.0973301
0.0973275
0.0973545
0.0973477
0.0974621
0.0974769
0.0978992
0.0982926
0.10031
0.101383
0.0981109
0.0932119
0.103033
0.100984
0.0981234
0.0979454
0.0974151
0.097443
0.0973376
0.0973495
0.097327
0.0973298
0.097325
0.0973251
0.0973242
0.097324
0.0973242
0.0973242
0.0973252
0.0973249
0.0973298
0.0973265
0.0973512
0.0973365
0.0974489
0.0974133
0.0979625
0.0981395
0.100944
0.102042
0.0983009
0.0934614
0.106808
0.102387
0.0987734
0.0984829
0.0976
0.0975513
0.0974356
0.0974206
0.0974042
0.0973992
0.0973961
0.0973939
0.0973929
0.0973915
0.0973913
0.0973898
0.0973909
0.097388
0.0973952
0.0973848
0.0974232
0.0973875
0.0975822
0.0974693
0.0985747
0.0981386
0.102498
0.10125
0.10288
0.0962502
0.143083
0.119754
0.110732
0.104374
0.101627
0.102109
0.101369
0.101661
0.101517
0.101601
0.101584
0.101609
0.101615
0.101628
0.101633
0.101648
0.10165
0.101676
0.101661
0.101739
0.101635
0.10197
0.101504
0.102831
0.101349
0.10499
0.108009
0.111185
0.201305
0.092806
0.0985818
0.0982408
0.0978558
0.097713
0.0975346
0.0928063
0.0985844
0.0982385
0.0978561
0.0977169
0.0975488
0.0974569
0.0973956
0.0928065
0.0985838
0.0982377
0.0978584
0.0977099
0.097536
0.0974312
0.0973751
0.097359
0.0973423
0.0973312
0.0973278
0.0973259
0.0973246
0.0973237
0.0928066
0.098592
0.098229
0.0978526
0.0977067
0.0975648
0.0974866
0.0973988
0.0973647
0.0973434
0.0973308
0.0973284
0.0973238
0.0973243
0.0973238
0.0973243
0.0928066
0.098598
0.0982209
0.097844
0.0976853
0.0975331
0.0974321
0.0973803
0.0973598
0.0973426
0.0973312
0.0973289
0.0973283
0.0973245
0.0973244
0.0973236
0.0973257
0.0928067
0.0986046
0.0982139
0.0978413
0.0976815
0.0975436
0.0974549
0.0974038
0.097372
0.0973458
0.0973342
0.0973371
0.0973244
0.0973278
0.0973244
0.0973279
0.0973252
0.0973319
0.0928068
0.0986123
0.098206
0.0978345
0.0976667
0.0975266
0.0974312
0.0973874
0.0973538
0.0973421
0.0973344
0.0973407
0.0973345
0.0973249
0.0973241
0.0973251
0.0973363
0.0973318
0.0973368
0.0973405
0.0973491
0.0928072
0.0986175
0.0982005
0.0978349
0.0976633
0.0975299
0.0974349
0.0973955
0.0973568
0.0973412
0.097335
0.0973378
0.0973327
0.0973247
0.0973244
0.0973242
0.0973278
0.0973257
0.0973317
0.0973436
0.0973544
0.0973683
0.0974041
0.0974331
0.0975492
0.0976296
0.0979054
0.0982209
0.0985903
0.0974954
0.0928076
0.0986236
0.0981944
0.0978327
0.0976552
0.0975228
0.0974284
0.0973921
0.0973565
0.0973476
0.0973412
0.0973372
0.0973254
0.0973278
0.0973243
0.0973257
0.0973327
0.0973265
0.0973343
0.0973463
0.0973567
0.0973688
0.0974092
0.0974374
0.0975545
0.0976305
0.0979094
0.0982173
0.0985928
0.0974939
0.0928083
0.0986281
0.0981902
0.0978355
0.0976531
0.0975243
0.0974286
0.0973938
0.0973566
0.0973458
0.0973387
0.0973302
0.0973276
0.0973262
0.0973354
0.0973249
0.0973255
0.0973281
0.0973293
0.0973363
0.0973519
0.0973647
0.0974062
0.097434
0.0975519
0.0976273
0.0979108
0.0982132
0.0985973
0.0974925
0.0928093
0.0986329
0.098186
0.0978384
0.0976503
0.0975234
0.097427
0.097393
0.0973557
0.0973472
0.0973409
0.0973324
0.0973314
0.0973272
0.0973252
0.0973279
0.097331
0.0973269
0.0973291
0.0973395
0.097356
0.0973676
0.0974113
0.0974375
0.0975566
0.097628
0.097916
0.0982089
0.0986007
0.09749
0.0928105
0.098637
0.0981827
0.0978443
0.0976508
0.0975265
0.0974295
0.0973954
0.0973588
0.0973498
0.0973436
0.0973408
0.0973259
0.0973273
0.0973251
0.0973272
0.097325
0.0973295
0.0973275
0.0973338
0.0973495
0.0973624
0.097407
0.0974349
0.0975564
0.0976268
0.0979209
0.0982046
0.0986058
0.0974871
0.0928122
0.0986415
0.09818
0.0978522
0.097652
0.0975296
0.0974284
0.0973916
0.0973528
0.097341
0.0973375
0.0973405
0.09734
0.0973258
0.0973258
0.0973258
0.0973344
0.0973297
0.0973333
0.097346
0.0973596
0.0973692
0.0974127
0.0974389
0.0975619
0.0976289
0.0979287
0.0981998
0.0986106
0.097483
0.0928143
0.0986464
0.0981773
0.0978615
0.0976559
0.0975357
0.0974363
0.0973966
0.0973606
0.0973448
0.097336
0.0973332
0.0973301
0.0973262
0.0973255
0.0973253
0.0973285
0.0973271
0.0973294
0.0973395
0.0973479
0.0973624
0.097405
0.0974356
0.0975627
0.0976296
0.0979375
0.0981948
0.0986179
0.0974783
0.092817
0.0986534
0.0981769
0.0978756
0.0976611
0.0975438
0.0974346
0.0973913
0.0973534
0.0973378
0.0973355
0.0973344
0.0973339
0.0973299
0.097327
0.0973258
0.0973361
0.097332
0.0973346
0.0973431
0.0973546
0.0973708
0.0974107
0.0974413
0.0975692
0.0976343
0.0979489
0.0981896
0.0986262
0.0974719
0.0928206
0.0986619
0.0981765
0.0978898
0.0976699
0.0975528
0.0974532
0.0974034
0.0973689
0.0973431
0.0973354
0.0973336
0.0973273
0.0973274
0.0973283
0.0973273
0.0973268
0.0973338
0.0973302
0.0973344
0.0973405
0.0973593
0.0973992
0.0974376
0.0975735
0.0976378
0.0979636
0.0981862
0.0986385
0.0974643
0.0928253
0.0986777
0.09818
0.09791
0.0976772
0.0975584
0.0974407
0.0973832
0.0973593
0.097341
0.0973327
0.0973303
0.0973277
0.0973284
0.0973265
0.0973257
0.0973284
0.0973263
0.0973282
0.0973355
0.0973457
0.0973733
0.0974058
0.0974447
0.0975782
0.0976434
0.0979791
0.0981835
0.0986568
0.0974545
0.0928319
0.0986983
0.0981856
0.0979332
0.0976921
0.0975698
0.097474
0.0973887
0.0973612
0.0973397
0.097333
0.0973283
0.0973272
0.0973275
0.0973255
0.0973273
0.0973262
0.0973264
0.097328
0.0973329
0.0973416
0.0973636
0.0973883
0.0974436
0.0975842
0.0976542
0.0980019
0.0981888
0.0986817
0.0974414
0.092841
0.0987432
0.0981976
0.097955
0.0977019
0.0975598
0.0974474
0.0973777
0.0973578
0.0973392
0.0973318
0.0973279
0.0973278
0.0973259
0.0973253
0.0973252
0.0973296
0.0973267
0.0973267
0.0973343
0.0973399
0.0973682
0.0973857
0.0974444
0.0975796
0.0976589
0.0980198
0.0981932
0.0987316
0.0974257
0.0928549
0.0988251
0.0982317
0.0979996
0.097728
0.0975527
0.097453
0.0973703
0.0973604
0.0973355
0.0973328
0.0973299
0.0973276
0.0973256
0.0973258
0.0973247
0.0973255
0.0973288
0.097327
0.0973335
0.0973373
0.0973733
0.0973865
0.097458
0.0975771
0.0976845
0.098048
0.0982332
0.0988147
0.0974037
0.0928755
0.098997
0.0982746
0.0980142
0.0977634
0.0975338
0.0974591
0.0973663
0.0973615
0.0973331
0.0973338
0.0973262
0.0973258
0.0973255
0.0973247
0.0973254
0.097325
0.0973261
0.0973269
0.0973323
0.0973341
0.0973642
0.0973737
0.097465
0.0975597
0.0977182
0.0980638
0.0982815
0.099005
0.097383
0.092911
0.0994768
0.0985035
0.0980694
0.0978203
0.0975052
0.0974659
0.0973561
0.0973599
0.0973304
0.0973316
0.0973261
0.097326
0.0973247
0.0973249
0.0973245
0.0973249
0.097326
0.0973263
0.0973327
0.097331
0.0973666
0.0973654
0.0974751
0.0975306
0.097792
0.0980965
0.0985483
0.0994156
0.0973533
0.0929651
0.100312
0.098861
0.0980067
0.0979737
0.0974799
0.0974989
0.0973493
0.0973641
0.0973293
0.0973329
0.0973252
0.0973254
0.0973245
0.0973242
0.0973244
0.0973242
0.0973254
0.097325
0.0973317
0.0973283
0.0973661
0.0973545
0.0975024
0.0974992
0.0979311
0.0980565
0.098902
0.100176
0.0973522
0.0931029
0.102279
0.1005
0.0980957
0.0980679
0.097428
0.097482
0.097339
0.0973582
0.0973271
0.0973311
0.0973253
0.0973256
0.0973246
0.0973246
0.0973246
0.0973248
0.0973259
0.0973255
0.097332
0.0973271
0.0973612
0.0973402
0.0974928
0.0974322
0.0980971
0.0980493
0.100559
0.101335
0.0974495
0.0933715
0.106731
0.102366
0.0992187
0.0987966
0.0976932
0.0976064
0.0974471
0.0974259
0.0974031
0.0973973
0.0973934
0.0973912
0.0973904
0.097389
0.0973892
0.0973875
0.0973895
0.0973855
0.0973963
0.097382
0.0974388
0.0973916
0.0976712
0.0975277
0.0989612
0.0982983
0.102735
0.100505
0.102158
0.0962299
0.146371
0.126304
0.115108
0.106048
0.103124
0.102364
0.101237
0.1016
0.101393
0.1015
0.101475
0.101506
0.101511
0.101528
0.101532
0.101552
0.101549
0.101584
0.101559
0.101665
0.101517
0.101985
0.10134
0.103373
0.103061
0.106615
0.113629
0.113779
0.201315
0.0927862
0.0982893
0.098093
0.097816
0.097726
0.0975666
0.0974623
0.0974
0.0927864
0.0982954
0.0980975
0.0978166
0.0977362
0.097554
0.0974677
0.0974167
0.092786
0.0982915
0.0980794
0.0978027
0.0976782
0.0975375
0.0974493
0.0973915
0.0927857
0.0983029
0.0980726
0.0977902
0.0976539
0.0975166
0.0974647
0.0974193
0.0927855
0.0983017
0.0980619
0.0977847
0.0976376
0.0975057
0.0974304
0.0973824
0.0927853
0.0983109
0.0980555
0.0977772
0.0976168
0.0974915
0.0974318
0.0973992
0.0973739
0.0973601
0.0973465
0.0973737
0.0973405
0.0973401
0.0973271
0.0973381
0.0973298
0.0927854
0.0983126
0.0980491
0.0977765
0.0976114
0.0974889
0.0974186
0.0973846
0.0973502
0.0973541
0.0973483
0.0973756
0.0973445
0.0973311
0.0973255
0.0973274
0.0973291
0.0973859
0.0973635
0.09734
0.0973484
0.0973562
0.0973845
0.0974138
0.0974885
0.0976041
0.0977834
0.0981172
0.098268
0.0969299
0.0927855
0.0983185
0.0980441
0.0977744
0.0976003
0.0974817
0.0974136
0.0973852
0.097353
0.0973489
0.09733
0.0973501
0.0974033
0.0973298
0.0973329
0.0973306
0.0973387
0.0974234
0.0973772
0.0973463
0.0973575
0.0973642
0.0973904
0.0974156
0.0974902
0.0976029
0.0977851
0.0981133
0.09827
0.0969293
0.0927861
0.0983218
0.0980397
0.0977769
0.0975983
0.0974834
0.0974131
0.0973851
0.0973516
0.0973458
0.0973318
0.0973303
0.0973389
0.0973767
0.0973303
0.0973883
0.0973444
0.0973287
0.0973341
0.097342
0.0973461
0.0973553
0.0973839
0.0974114
0.0974879
0.0975994
0.0977869
0.0981097
0.0982737
0.0969287
0.0927868
0.0983265
0.0980359
0.0977792
0.0975947
0.097483
0.097412
0.0973869
0.0973525
0.097347
0.0973279
0.0973364
0.0973308
0.09733
0.0973466
0.0973292
0.0973261
0.097349
0.0973403
0.0973444
0.0973526
0.0973601
0.0973907
0.0974148
0.0974914
0.0975984
0.0977903
0.0981052
0.0982763
0.0969276
0.0927878
0.0983306
0.098032
0.0977839
0.0975942
0.0974855
0.0974125
0.0973849
0.0973522
0.0973422
0.0973393
0.0973587
0.0974038
0.0973314
0.0973269
0.0973323
0.0973784
0.0973453
0.0973443
0.0973437
0.0973533
0.0973585
0.0973882
0.0974131
0.0974912
0.0975967
0.0977947
0.0981015
0.0982808
0.0969265
0.0927892
0.0983361
0.0980296
0.0977909
0.0975965
0.0974915
0.0974189
0.0973949
0.0973597
0.0973529
0.0973534
0.0973823
0.0973381
0.0973419
0.0973254
0.0973366
0.0973289
0.0974142
0.0973801
0.0973438
0.0973549
0.0973606
0.0973938
0.0974177
0.0974967
0.0975973
0.0978007
0.0980963
0.0982846
0.096925
0.092791
0.0983416
0.0980256
0.097799
0.0975983
0.0974982
0.097419
0.0973907
0.0973555
0.0973498
0.0973453
0.0973652
0.0973359
0.0973337
0.0973265
0.0973283
0.0973355
0.0973761
0.0973611
0.0973397
0.0973516
0.0973615
0.0973899
0.0974167
0.0974971
0.0975969
0.0978077
0.0980921
0.0982916
0.0969234
0.0927933
0.0983512
0.0980251
0.0978103
0.0976049
0.0975042
0.0974329
0.0974041
0.0973676
0.0973558
0.0973498
0.0973838
0.0973536
0.0973322
0.0973255
0.0973268
0.0973343
0.0974153
0.0973697
0.0973426
0.0973446
0.0973613
0.0973945
0.0974246
0.0975073
0.0976006
0.0978172
0.0980861