/*--------------------------------*- C++ -*----------------------------------*\
  =========                 |
  \\      /  F ield         | OpenFOAM: The Open Source CFD Toolbox
   \\    /   O peration     | Website:  https://openfoam.org
    \\  /    A nd           | Version:  10
     \\/     M anipulation  |
\*---------------------------------------------------------------------------*/
FoamFile
{
    format      ascii;
    class       volScalarField;
    location    "0.05";
    object      k_0;
}
// * * * * * * * * * * * * * * * * * * * * * * * * * * * * * * * * * * * * * //

dimensions      [0 2 -2 0 0 0 0];

internalField   nonuniform List<scalar> 
116800
(
0.0910315
0.094796
0.0940253
0.0927237
0.0929686
0.0910317
0.0947965
0.0940241
0.0927238
0.0929673
0.092582
0.0910318
0.094797
0.0940239
0.0927241
0.0929662
0.0925823
0.0927303
0.0925727
0.091032
0.0947975
0.0940246
0.0927247
0.0929672
0.0925826
0.0927318
0.0925727
0.0926535
0.0925877
0.0926211
0.0926001
0.0926111
0.0926047
0.0926082
0.0910322
0.0947981
0.0940257
0.0927254
0.0929671
0.0925831
0.0927301
0.0925733
0.0926519
0.092589
0.0926201
0.092601
0.0926105
0.0926053
0.0926081
0.0926059
0.0910323
0.0947988
0.0940281
0.0927263
0.09297
0.0925835
0.092733
0.0925734
0.0926537
0.0925886
0.0926211
0.0926009
0.0926111
0.0926057
0.0926082
0.0926065
0.0926083
0.0910326
0.0947996
0.0940298
0.0927272
0.0929705
0.0925841
0.0927321
0.0925741
0.0926527
0.0925897
0.0926204
0.0926019
0.0926104
0.0926063
0.0926083
0.0926067
0.092609
0.0926048
0.0910329
0.0948006
0.0940323
0.0927284
0.0929729
0.0925848
0.0927343
0.0925745
0.0926545
0.0925896
0.0926214
0.0926017
0.0926112
0.0926068
0.0926083
0.0926079
0.0926082
0.092607
0.0926128
0.0925978
0.0926307
0.0910332
0.0948017
0.0940339
0.0927296
0.0929735
0.0925856
0.092734
0.0925753
0.0926541
0.0925905
0.0926214
0.0926024
0.0926114
0.0926072
0.0926088
0.0926084
0.0926088
0.0926072
0.0926131
0.0925986
0.0926304
0.0925775
0.092682
0.0925612
0.0928035
0.0925575
0.0932295
0.0925777
0.095537
0.0938175
0.0910336
0.094803
0.0940357
0.0927309
0.0929744
0.0925864
0.0927345
0.0925762
0.0926542
0.0925919
0.0926212
0.0926039
0.0926113
0.0926083
0.0926091
0.0926096
0.0926088
0.0926091
0.0926128
0.0926007
0.0926298
0.0925788
0.0926808
0.0925617
0.0928023
0.0925581
0.093228
0.0925778
0.0955344
0.0938176
0.0910341
0.0948047
0.0940369
0.0927323
0.0929742
0.0925874
0.092734
0.0925772
0.0926539
0.092593
0.0926217
0.0926045
0.0926124
0.0926086
0.09261
0.0926103
0.0926102
0.0926089
0.0926143
0.0926009
0.0926303
0.0925797
0.0926803
0.0925623
0.0928013
0.0925587
0.0932263
0.0925779
0.0955313
0.0938177
0.0910347
0.0948067
0.0940379
0.0927339
0.0929738
0.0925885
0.0927336
0.0925783
0.0926535
0.0925944
0.092622
0.0926056
0.092613
0.0926098
0.0926108
0.0926111
0.0926106
0.0926107
0.0926143
0.0926031
0.0926296
0.0925814
0.0926789
0.092563
0.0927997
0.0925595
0.0932239
0.0925781
0.0955275
0.0938179
0.0910355
0.0948091
0.0940386
0.0927358
0.0929725
0.0925898
0.0927325
0.0925796
0.0926529
0.0925962
0.0926222
0.092607
0.0926138
0.0926106
0.092612
0.0926115
0.0926125
0.0926105
0.0926159
0.0926035
0.0926303
0.0925826
0.0926784
0.0925639
0.0927982
0.0925604
0.0932213
0.0925783
0.0955229
0.0938181
0.0910364
0.0948121
0.094039
0.0927379
0.0929708
0.0925913
0.0927315
0.092581
0.0926527
0.0925972
0.0926234
0.0926073
0.0926155
0.0926115
0.0926131
0.0926129
0.0926126
0.0926133
0.0926156
0.0926065
0.0926297
0.0925849
0.0926767
0.0925649
0.0927962
0.0925615
0.093218
0.0925787
0.0955172
0.0938184
0.0910376
0.0948159
0.094039
0.0927405
0.092968
0.0925931
0.0927296
0.0925829
0.0926515
0.0925998
0.0926239
0.0926092
0.0926168
0.0926125
0.0926146
0.0926134
0.0926145
0.0926133
0.0926174
0.092607
0.092631
0.0925865
0.0926764
0.0925663
0.0927944
0.0925628
0.0932141
0.0925791
0.0955102
0.0938187
0.0910392
0.0948208
0.0940389
0.0927436
0.092965
0.0925952
0.0927282
0.0925847
0.0926514
0.0926012
0.0926254
0.0926102
0.0926184
0.0926138
0.0926159
0.0926151
0.0926153
0.0926156
0.092618
0.0926096
0.0926311
0.0925895
0.0926748
0.0925679
0.0927918
0.0925644
0.0932088
0.0925798
0.0955012
0.0938192
0.0910413
0.0948272
0.0940381
0.0927474
0.09296
0.0925977
0.0927251
0.0925873
0.0926496
0.0926046
0.0926258
0.0926129
0.0926199
0.0926149
0.092618
0.0926156
0.0926183
0.0926153
0.0926207
0.0926102
0.0926331
0.0925915
0.0926746
0.0925699
0.0927895
0.0925663
0.0932024
0.0925806
0.0954897
0.0938199
0.0910441
0.0948357
0.0940378
0.0927521
0.0929556
0.0926007
0.0927238
0.0925897
0.0926496
0.092607
0.0926272
0.092615
0.0926212
0.0926172
0.0926192
0.0926177
0.0926189
0.0926176
0.0926216
0.0926129
0.0926335
0.0925955
0.0926729
0.0925723
0.092786
0.0925687
0.0931937
0.0925818
0.0954745
0.0938209
0.0910478
0.0948471
0.0940353
0.092758
0.0929482
0.0926042
0.0927199
0.0925934
0.0926486
0.0926107
0.0926279
0.0926178
0.0926224
0.092619
0.092621
0.0926188
0.0926213
0.0926184
0.0926238
0.0926145
0.0926351
0.0925987
0.092673
0.0925753
0.0927826
0.0925718
0.0931826
0.0925833
0.095454
0.0938223
0.0910531
0.0948626
0.0940333
0.0927658
0.092942
0.0926081
0.0927185
0.0925969
0.0926493
0.0926137
0.0926295
0.0926199
0.0926243
0.0926208
0.0926224
0.0926208
0.0926221
0.0926204
0.092625
0.0926168
0.0926359
0.0926026
0.0926722
0.092579
0.0927779
0.0925756
0.0931675
0.0925854
0.0954251
0.0938243
0.0910608
0.0948842
0.0940217
0.092775
0.0929305
0.0926124
0.0927146
0.0926019
0.0926491
0.0926179
0.0926308
0.0926232
0.0926256
0.0926235
0.0926242
0.0926228
0.0926246
0.0926221
0.0926272
0.0926195
0.0926372
0.0926074
0.0926712
0.0925836
0.0927717
0.0925806
0.0931476
0.0925883
0.0953815
0.093827
0.0910723
0.094915
0.0940122
0.0927873
0.092919
0.092617
0.0927109
0.0926077
0.0926495
0.0926214
0.0926326
0.0926252
0.0926277
0.092625
0.092626
0.0926246
0.0926261
0.0926242
0.0926287
0.092622
0.0926382
0.0926114
0.0926698
0.0925887
0.0927634
0.0925866
0.0931224
0.0925927
0.0953157
0.0938311
0.0910915
0.0949587
0.0939589
0.0927992
0.0928952
0.0926213
0.0927061
0.0926167
0.0926511
0.0926273
0.0926359
0.0926299
0.0926311
0.0926294
0.0926297
0.0926288
0.0926299
0.0926283
0.0926323
0.0926268
0.092641
0.0926186
0.0926695
0.0925959
0.092756
0.0925919
0.0930842
0.0925978
0.0952012
0.0938369
0.0911245
0.0950166
0.0939341
0.0928151
0.0928788
0.0926289
0.0927021
0.0926252
0.0926531
0.0926324
0.0926391
0.0926336
0.0926347
0.092633
0.0926333
0.0926324
0.0926335
0.0926324
0.0926358
0.0926316
0.0926437
0.0926253
0.0926693
0.0926047
0.0927489
0.0926001
0.0930432
0.0926082
0.0950326
0.0938437
0.0911937
0.0950874
0.0937525
0.0928204
0.0928369
0.0926551
0.0927032
0.0926502
0.0926676
0.0926527
0.0926567
0.0926526
0.0926528
0.0926515
0.0926515
0.092651
0.0926516
0.0926509
0.0926535
0.0926508
0.0926599
0.0926476
0.0926794
0.0926352
0.0927396
0.0926131
0.0929572
0.0926178
0.0946959
0.0938326
0.0913497
0.095154
0.0938425
0.0928719
0.0928735
0.0927108
0.0927454
0.0927021
0.0927141
0.0927024
0.0927047
0.0927014
0.0927013
0.0927002
0.0927002
0.0926998
0.0927004
0.0927002
0.0927023
0.0927009
0.0927079
0.0926994
0.0927243
0.0926901
0.0927753
0.0926677
0.0929485
0.0926609
0.0942924
0.0937372
0.0921267
0.095072
0.0935986
0.0930376
0.0929318
0.0928528
0.092837
0.0928228
0.0928169
0.0928136
0.0928111
0.0928095
0.0928084
0.0928078
0.0928074
0.0928073
0.0928076
0.0928081
0.092809
0.0928103
0.0928124
0.0928148
0.0928198
0.0928225
0.0928475
0.0928353
0.0929269
0.0928654
0.0935575
0.0949724
0.0934034
0.101332
0.100344
0.0997008
0.0982329
0.0934037
0.101339
0.100352
0.0997103
0.0982384
0.0978486
0.093404
0.101341
0.100354
0.0997152
0.0982424
0.0978552
0.0975783
0.0974875
0.0934043
0.101342
0.100352
0.0997141
0.0982391
0.0978513
0.0975749
0.0974861
0.0974296
0.097408
0.0973942
0.0973896
0.0973873
0.0973862
0.0973858
0.0934046
0.101341
0.100348
0.0997144
0.0982391
0.0978605
0.0975823
0.0974901
0.0974311
0.0974085
0.0973944
0.0973896
0.0973869
0.0973861
0.0973857
0.0973862
0.0934048
0.101337
0.10034
0.099705
0.0982304
0.0978546
0.0975772
0.0974892
0.0974307
0.0974086
0.0973942
0.0973899
0.0973877
0.0973863
0.0973861
0.097386
0.097386
0.0934051
0.101335
0.100335
0.0997044
0.0982284
0.09786
0.097581
0.0974932
0.0974328
0.0974098
0.0973953
0.0973905
0.0973874
0.0973863
0.097386
0.0973866
0.0973861
0.0973878
0.0934055
0.101332
0.100327
0.0996965
0.0982204
0.0978568
0.0975786
0.0974921
0.0974309
0.0974094
0.0973944
0.0973909
0.0973886
0.0973865
0.0973866
0.0973862
0.0973868
0.0973877
0.09739
0.097401
0.0974092
0.093406
0.101332
0.100323
0.0996971
0.0982183
0.0978602
0.0975798
0.0974935
0.0974308
0.0974096
0.0973949
0.0973909
0.0973886
0.0973865
0.0973868
0.0973863
0.0973866
0.0973877
0.0973894
0.0974008
0.097409
0.0974536
0.0974854
0.0976524
0.0978055
0.0984942
0.0995394
0.100753
0.101765
0.101438
0.0934066
0.101332
0.100318
0.0996954
0.0982144
0.0978608
0.097581
0.0974946
0.097432
0.0974109
0.0973963
0.097391
0.0973884
0.0973866
0.0973869
0.0973863
0.0973871
0.0973875
0.0973898
0.0974011
0.0974102
0.0974539
0.0974881
0.0976551
0.0978105
0.0984959
0.0995444
0.100752
0.101768
0.101433
0.0934074
0.101335
0.100317
0.0996992
0.0982136
0.0978636
0.0975816
0.0974947
0.0974309
0.09741
0.0973956
0.0973906
0.0973882
0.0973869
0.0973877
0.0973865
0.0973868
0.0973881
0.0973892
0.0973996
0.0974085
0.0974515
0.0974867
0.0976543
0.0978121
0.098495
0.0995478
0.100751
0.101772
0.101427
0.0934084
0.10134
0.100317
0.0997044
0.0982131
0.0978659
0.0975822
0.0974949
0.0974303
0.09741
0.0973959
0.0973908
0.097389
0.097387
0.0973874
0.0973868
0.0973873
0.097388
0.0973893
0.0973997
0.0974093
0.0974515
0.0974887
0.0976563
0.0978174
0.0984973
0.0995552
0.100751
0.101777
0.101419
0.0934097
0.101348
0.10032
0.0997137
0.0982152
0.0978691
0.0975831
0.097495
0.0974301
0.0974097
0.097396
0.0973911
0.0973885
0.0973874
0.0973874
0.0973873
0.097387
0.0973881
0.0973889
0.0973982
0.0974071
0.0974487
0.0974866
0.0976548
0.0978195
0.0984975
0.0995618
0.100751
0.101783
0.10141
0.0934113
0.101358
0.100324
0.0997258
0.0982178
0.0978713
0.0975814
0.0974931
0.0974267
0.0974075
0.0973941
0.0973912
0.09739
0.0973876
0.097388
0.0973873
0.0973879
0.0973881
0.0973897
0.0973993
0.0974085
0.0974492
0.0974883
0.0976561
0.097825
0.0985011
0.0995728
0.100753
0.101791
0.101398
0.0934133
0.101371
0.100331
0.0997435
0.0982241
0.0978748
0.0975819
0.0974927
0.0974271
0.0974071
0.0973941
0.0973908
0.0973892
0.0973878
0.097388
0.0973876
0.0973878
0.0973883
0.0973892
0.0973982
0.0974056
0.0974461
0.0974848
0.0976529
0.0978267
0.0985024
0.0995838
0.100755
0.101801
0.101383
0.0934158
0.101388
0.100339
0.0997625
0.0982295
0.0978772
0.0975796
0.0974903
0.0974244
0.0974052
0.0973932
0.0973909
0.0973899
0.0973881
0.0973885
0.0973877
0.0973886
0.0973886
0.0973898
0.0973985
0.0974059
0.0974455
0.0974846
0.0976517
0.0978308
0.0985083
0.0996009
0.100759
0.101814
0.101363
0.0934192
0.101411
0.100351
0.0997878
0.0982392
0.0978814
0.0975798
0.0974892
0.0974252
0.0974049
0.0973936
0.0973905
0.0973888
0.0973883
0.0973884
0.0973883
0.0973882
0.0973889
0.0973892
0.0973969
0.0974024
0.0974413
0.0974792
0.0976456
0.0978301
0.0985126
0.0996192
0.100763
0.101832
0.101337
0.0934236
0.101439
0.100363
0.099812
0.098245
0.0978808
0.0975759
0.0974843
0.0974232
0.0974037
0.0973935
0.0973905
0.0973893
0.0973884
0.0973885
0.0973881
0.0973885
0.0973891
0.0973895
0.0973972
0.0974023
0.0974409
0.0974771
0.0976427
0.0978311
0.0985191
0.0996404
0.10077
0.101855
0.101301
0.0934296
0.101482
0.100383
0.0998453
0.0982558
0.0978828
0.0975749
0.09748
0.0974226
0.0974024
0.0973937
0.0973901
0.0973891
0.0973885
0.0973884
0.0973885
0.0973883
0.0973892
0.0973892
0.0973963
0.0974
0.0974374
0.09747
0.0976366
0.097828
0.0985226
0.0996608
0.100782
0.101891
0.101251
0.0934382
0.101533
0.100401
0.0998714
0.0982583
0.0978744
0.0975691
0.0974742
0.0974213
0.0974013
0.0973936
0.09739
0.0973892
0.0973885
0.0973883
0.0973883
0.0973886
0.0973894
0.0973892
0.0973964
0.0973989
0.0974362
0.0974647
0.0976308
0.0978212
0.098523
0.0996773
0.100799
0.10194
0.101182
0.0934512
0.101631
0.100438
0.0998993
0.0982617
0.0978587
0.0975635
0.0974653
0.0974207
0.0973993
0.0973938
0.0973897
0.0973891
0.0973883
0.0973883
0.0973882
0.0973882
0.0973896
0.097389
0.097396
0.0973969
0.0974339
0.0974571
0.0976241
0.0978043
0.09852
0.0996855
0.100828
0.102026
0.101072
0.0934708
0.101752
0.100476
0.09992
0.0982693
0.0978337
0.0975598
0.0974569
0.0974198
0.0973977
0.0973938
0.0973894
0.0973889
0.0973883
0.097388
0.0973883
0.0973881
0.0973893
0.0973889
0.0973955
0.0973954
0.0974309
0.0974484
0.097616
0.0977795
0.0985222
0.0996857
0.100868
0.102144
0.100925
0.0935042
0.102026
0.100564
0.0998809
0.0982511
0.0977711
0.0975499
0.0974423
0.0974177
0.0973952
0.0973933
0.097389
0.0973888
0.097388
0.097388
0.0973881
0.097388
0.0973893
0.0973888
0.0973952
0.0973936
0.0974275
0.0974358
0.0975996
0.097722
0.0984878
0.0996101
0.10095
0.102393
0.100647
0.0935532
0.102418
0.100751
0.099839
0.0983313
0.09773
0.0975596
0.0974343
0.0974185
0.0973949
0.0973941
0.0973896
0.0973893
0.0973886
0.0973883
0.0973885
0.0973884
0.0973895
0.0973889
0.0973949
0.0973925
0.0974258
0.0974273
0.0975985
0.0976882
0.0985265
0.0995242
0.101127
0.102686
0.100366
0.0936367
0.10371
0.101279
0.0992669
0.0982125
0.0975862
0.0975242
0.0974139
0.0974139
0.0973934
0.0973944
0.0973905
0.0973906
0.0973899
0.09739
0.0973901
0.0973904
0.0973915
0.0973915
0.0973964
0.0973944
0.0974196
0.0974137
0.0975482
0.09757
0.098352
0.0990165
0.101555
0.103314
0.0999488
0.0937622
0.107488
0.103213
0.0999549
0.0988745
0.0978009
0.0976548
0.0975282
0.0975044
0.0974884
0.0974832
0.0974803
0.0974784
0.0974774
0.0974763
0.0974761
0.097475
0.0974758
0.0974736
0.0974797
0.0974719
0.0975072
0.0974871
0.0976837
0.0976943
0.0988975
0.0994716
0.103083
0.102782
0.103317
0.0964167
0.135666
0.113868
0.108135
0.104139
0.101269
0.102055
0.101374
0.101631
0.101509
0.101577
0.101565
0.101584
0.101589
0.1016
0.101604
0.101615
0.101616
0.101636
0.101622
0.101689
0.101591
0.101894
0.101451
0.102714
0.101348
0.104711
0.107252
0.110444
0.18134
0.0930924
0.10089
0.100002
0.09828
0.0930928
0.100893
0.100014
0.0982893
0.0977953
0.0976049
0.093093
0.100893
0.10001
0.0982938
0.0977944
0.0976121
0.0974723
0.0974308
0.0930932
0.100895
0.100011
0.0982912
0.0977933
0.0976056
0.0974698
0.0974338
0.0973997
0.0973865
0.0973799
0.0973765
0.0973756
0.0973753
0.0973749
0.0930933
0.100895
0.0999993
0.0982913
0.0977852
0.09761
0.09747
0.0974278
0.0973963
0.0973856
0.0973799
0.0973768
0.0973759
0.0973753
0.097375
0.0973749
0.0930934
0.100897
0.0999919
0.0982814
0.0977737
0.0975997
0.0974688
0.0974345
0.0974007
0.0973877
0.0973804
0.0973767
0.0973758
0.0973751
0.097375
0.0973749
0.0973753
0.0930936
0.100898
0.0999826
0.0982819
0.0977697
0.097602
0.0974674
0.0974302
0.0973962
0.0973861
0.0973804
0.0973776
0.0973787
0.0973754
0.0973749
0.0973752
0.0973761
0.0973767
0.0930938
0.100899
0.0999739
0.098275
0.097759
0.097594
0.0974644
0.0974328
0.0973999
0.0973893
0.0973814
0.0973771
0.0973764
0.097376
0.0973749
0.0973758
0.0973753
0.0973815
0.0973803
0.0973844
0.0973908
0.0930942
0.100902
0.0999672
0.0982764
0.0977562
0.0975953
0.0974633
0.0974318
0.0973965
0.0973885
0.0973809
0.0973775
0.0973771
0.0973753
0.0973752
0.0973755
0.0973753
0.0973794
0.097379
0.0973832
0.0973898
0.097405
0.0974326
0.0974769
0.0975895
0.097788
0.0983198
0.100145
0.100532
0.0983553
0.0930946
0.100905
0.0999604
0.0982751
0.0977504
0.0975929
0.0974624
0.097433
0.097399
0.0973894
0.0973808
0.097377
0.0973791
0.0973757
0.0973751
0.0973755
0.0973762
0.097382
0.0973801
0.0973845
0.0973919
0.0974065
0.0974346
0.097478
0.0975913
0.0977866
0.0983224
0.100141
0.100535
0.0983541
0.0930953
0.100909
0.0999554
0.0982781
0.0977488
0.0975945
0.0974625
0.0974333
0.0973983
0.097389
0.0973809
0.0973769
0.0973767
0.0973764
0.0973757
0.0973773
0.0973761
0.0973778
0.0973783
0.097383
0.0973898
0.0974041
0.097433
0.0974767
0.0975909
0.0977836
0.0983244
0.100137
0.100539
0.0983528
0.093096
0.100913
0.0999505
0.0982811
0.0977468
0.097595
0.0974623
0.0974339
0.0973986
0.0973892
0.0973804
0.097377
0.0973771
0.0973755
0.0973768
0.0973754
0.0973759
0.0973793
0.0973789
0.0973839
0.0973914
0.0974055
0.0974355
0.0974789
0.0975939
0.0977827
0.0983284
0.100133
0.100544
0.0983508
0.093097
0.100919
0.0999466
0.0982865
0.0977469
0.0975972
0.0974629
0.097434
0.0973986
0.0973885
0.0973812
0.0973775
0.0973783
0.0973761
0.0973758
0.0973763
0.0973765
0.0973778
0.097379
0.0973828
0.0973905
0.0974039
0.0974342
0.0974779
0.0975945
0.0977805
0.0983326
0.100129
0.10055
0.0983485
0.0930982
0.100926
0.0999434
0.0982934
0.0977477
0.0975989
0.0974626
0.0974344
0.0973982
0.0973886
0.0973817
0.0973779
0.097377
0.097377
0.097376
0.0973768
0.097376
0.0973821
0.0973805
0.0973836
0.0973916
0.0974054
0.0974369
0.0974809
0.0975986
0.0977807
0.0983389
0.100125
0.100557
0.0983451
0.0930997
0.100935
0.0999399
0.0983027
0.0977502
0.0976027
0.0974634
0.0974341
0.0973976
0.097388
0.0973809
0.0973776
0.0973776
0.0973765
0.0973763
0.0973764
0.0973765
0.0973794
0.0973794
0.0973834
0.0973903
0.0974042
0.0974347
0.097479
0.097599
0.0977795
0.0983459
0.10012
0.100566
0.0983412
0.0931017
0.100946
0.0999389
0.0983125
0.0977527
0.0976037
0.0974632
0.0974344
0.0973979
0.0973886
0.0973821
0.0973781
0.097379
0.0973767
0.0973765
0.0973762
0.0973772
0.0973819
0.0973797
0.0973836
0.0973892
0.0974047
0.0974361
0.0974817
0.0976033
0.0977822
0.0983557
0.100114
0.100578
0.0983358
0.0931043
0.10096
0.0999388
0.0983281
0.0977587
0.0976113
0.0974654
0.0974326
0.0973965
0.0973869
0.0973804
0.0973774
0.097379
0.0973779
0.0973777
0.0973767
0.097379
0.0973775
0.0973783
0.0973841
0.097389
0.0974042
0.0974336
0.0974786
0.0976028
0.0977825
0.098366
0.100108
0.100594
0.0983292
0.0931078
0.10098
0.0999415
0.0983396
0.0977609
0.0976078
0.0974646
0.0974341
0.0973997
0.0973871
0.0973811
0.0973774
0.0973777
0.0973767
0.0973777
0.0973771
0.0973774
0.0973779
0.0973786
0.0973829
0.0973875
0.0974043
0.0974341
0.0974816
0.097607
0.0977873
0.09838
0.100099
0.100615
0.0983206
0.0931126
0.101009
0.0999499
0.0983631
0.0977728
0.0976174
0.0974678
0.0974279
0.0973981
0.0973861
0.0973813
0.0973776
0.0973783
0.0973767
0.0973776
0.0973768
0.0973776
0.0973777
0.0973778
0.0973832
0.0973867
0.0974052
0.0974318
0.0974802
0.0976047
0.0977905
0.0983969
0.100096
0.100644
0.0983087
0.0931194
0.101049
0.099954
0.0983741
0.0977748
0.0976038
0.0974665
0.0974286
0.0974
0.0973856
0.0973814
0.0973778
0.0973777
0.097377
0.0973774
0.097377
0.0973773
0.0973779
0.097378
0.097383
0.0973857
0.0974057
0.09743
0.0974822
0.0976034
0.0977953
0.0984116
0.100086
0.100686
0.0982946
0.0931302
0.101116
0.0999817
0.0983974
0.0977944
0.0976031
0.0974709
0.0974232
0.0974008
0.0973846
0.0973824
0.0973778
0.0973779
0.0973768
0.097377
0.0973768
0.0973771
0.0973777
0.0973775
0.0973824
0.0973834
0.0974043
0.0974245
0.0974854
0.0975957
0.0978045
0.0984288
0.100092
0.100751
0.0982713
0.0931462
0.101217
0.100003
0.0983964
0.0978111
0.0975863
0.0974765
0.0974169
0.0974003
0.0973829
0.0973818
0.0973777
0.0973775
0.0973766
0.0973767
0.0973765
0.0973767
0.0973776
0.0973774
0.0973827
0.0973824
0.0974051
0.0974162
0.09749
0.0975826
0.0978242
0.0984275
0.100097
0.100855
0.0982441
0.0931792
0.10144
0.100111
0.0983855
0.0978435
0.0975584
0.0974811
0.0974072
0.0974011
0.0973814
0.0973818
0.0973772
0.0973771
0.0973763
0.0973761
0.0973763
0.0973763
0.0973773
0.0973769
0.0973821
0.0973805
0.0974039
0.0974071
0.0974921
0.0975537
0.0978486
0.0984157
0.100187
0.101062
0.0981948
0.0932252
0.101797
0.100293
0.0982968
0.0979462
0.0975246
0.0975021
0.0973995
0.097403
0.0973796
0.0973816
0.0973768
0.0973769
0.097376
0.0973759
0.0973759
0.0973759
0.0973768
0.0973764
0.0973819
0.0973794
0.0974056
0.097399
0.0975109
0.0975256
0.0979405
0.0983277
0.10031
0.101371
0.0981849
0.0933575
0.102969
0.100972
0.0981609
0.0979857
0.097465
0.0974924
0.0973892
0.0974008
0.0973789
0.0973816
0.097377
0.097377
0.0973762
0.097376
0.0973761
0.0973761
0.0973771
0.0973769
0.0973816
0.0973784
0.0974025
0.0973882
0.0974981
0.0974635
0.0980022
0.0981779
0.100935
0.102014
0.0983665
0.093603
0.106506
0.102346
0.0987822
0.0985121
0.0976425
0.0975979
0.0974835
0.0974698
0.0974534
0.0974489
0.0974457
0.0974437
0.0974427
0.0974414
0.0974411
0.0974398
0.0974408
0.0974381
0.0974449
0.0974351
0.097472
0.0974379
0.0976271
0.0975183
0.0986012
0.0981804
0.10245
0.101275
0.102834
0.0963837
0.140951
0.118674
0.110129
0.104203
0.101504
0.102024
0.101303
0.101589
0.101451
0.101533
0.101518
0.101542
0.101548
0.101561
0.101567
0.101582
0.101583
0.101608
0.101594
0.101671
0.101569
0.101897
0.101439
0.102742
0.101283
0.104819
0.107532
0.110874
0.195794
0.0929596
0.098621
0.098283
0.0979022
0.0977581
0.0975821
0.09296
0.0986234
0.0982807
0.0979026
0.0977618
0.0975958
0.0975054
0.0974455
0.0929601
0.098623
0.0982799
0.0979048
0.097755
0.0975835
0.0974804
0.0974255
0.0974097
0.0973935
0.0973828
0.0973796
0.0973778
0.0973765
0.0973756
0.0929603
0.0986308
0.0982714
0.0978991
0.0977519
0.0976115
0.0975342
0.0974484
0.0974151
0.0973946
0.0973824
0.0973802
0.0973758
0.0973762
0.0973757
0.0973762
0.0929603
0.0986368
0.0982635
0.0978908
0.0977312
0.0975807
0.0974812
0.0974306
0.0974104
0.0973937
0.0973828
0.0973807
0.0973801
0.0973764
0.0973763
0.0973755
0.0973776
0.0929604
0.0986431
0.0982565
0.0978882
0.0977274
0.097591
0.0975034
0.0974533
0.0974223
0.0973968
0.0973857
0.0973886
0.0973764
0.0973796
0.0973764
0.0973797
0.0973771
0.0973837
0.0929605
0.0986507
0.0982489
0.0978816
0.0977131
0.0975745
0.0974805
0.0974375
0.0974047
0.0973933
0.097386
0.0973921
0.0973862
0.0973768
0.097376
0.097377
0.097388
0.0973836
0.0973883
0.0973918
0.0974
0.0929608
0.0986557
0.0982435
0.097882
0.0977097
0.0975778
0.0974841
0.0974453
0.0974076
0.0973925
0.0973865
0.0973892
0.0973845
0.0973766
0.0973764
0.0973762
0.0973796
0.0973776
0.0973833
0.0973947
0.0974052
0.0974187
0.0974537
0.0974825
0.0975966
0.0976778
0.0979507
0.0982627
0.0986309
0.0975822
0.0929613
0.0986617
0.0982375
0.0978799
0.0977019
0.0975709
0.0974778
0.0974421
0.0974073
0.0973987
0.0973924
0.0973886
0.0973773
0.0973797
0.0973763
0.0973777
0.0973844
0.0973784
0.0973858
0.0973974
0.0974074
0.0974192
0.0974587
0.0974866
0.0976016
0.0976786
0.0979546
0.0982591
0.0986335
0.0975808
0.092962
0.0986661
0.0982333
0.0978827
0.0976997
0.0975723
0.097478
0.0974437
0.0974074
0.0973969
0.0973901
0.0973819
0.0973794
0.097378
0.097387
0.0973768
0.0973774
0.0973799
0.097381
0.0973877
0.0974028
0.0974153
0.0974559
0.0974834
0.0975992
0.0976755
0.097956
0.098255
0.0986378
0.0975794
0.0929629
0.0986707
0.0982292
0.0978855
0.097697
0.0975716
0.0974765
0.097443
0.0974066
0.0973983
0.0973922
0.097384
0.0973831
0.0973791
0.0973771
0.0973797
0.0973828
0.0973788
0.0973808
0.0973908
0.0974067
0.0974181
0.0974608
0.0974868
0.0976037
0.0976761
0.0979611
0.0982508
0.0986412
0.0975769
0.0929642
0.0986749
0.098226
0.0978913
0.0976974
0.0975745
0.0974789
0.0974453
0.0974096
0.0974007
0.0973948
0.0973921
0.0973778
0.0973791
0.0973771
0.0973791
0.0973769
0.0973814
0.0973793
0.0973854
0.0974006
0.0974131
0.0974567
0.0974842
0.0976036
0.0976749
0.097966
0.0982466
0.0986463
0.0975741
0.0929657
0.0986794
0.0982232
0.0978991
0.0976985
0.0975776
0.0974779
0.0974417
0.0974038
0.0973923
0.097389
0.0973918
0.0973915
0.0973777
0.0973777
0.0973777
0.0973861
0.0973815
0.0973849
0.0973971
0.0974103
0.0974196
0.0974622
0.0974881
0.0976089
0.0976769
0.0979736
0.0982418
0.0986511
0.0975702
0.0929678
0.0986843
0.0982205
0.0979082
0.0977023
0.0975835
0.0974855
0.0974465
0.0974113
0.097396
0.0973875
0.0973847
0.0973819
0.097378
0.0973774
0.0973772
0.0973804
0.097379
0.0973812
0.0973908
0.097399
0.0974131
0.0974547
0.097485
0.0976098
0.0976775
0.0979822
0.0982369
0.0986583
0.0975656
0.0929705
0.0986912
0.0982199
0.0979219
0.0977074
0.0975914
0.097484
0.0974414
0.0974043
0.0973893
0.0973871
0.0973859
0.0973856
0.0973817
0.0973789
0.0973777
0.0973878
0.0973838
0.0973862
0.0973943
0.0974054
0.0974211
0.0974602
0.0974904
0.097616
0.097682
0.0979932
0.0982317
0.0986666
0.0975593
0.092974
0.0986998
0.0982194
0.0979358
0.0977159
0.0976002
0.0975019
0.097453
0.0974193
0.0973944
0.0973869
0.0973853
0.0973792
0.0973793
0.0973802
0.0973792
0.0973787
0.0973856
0.097382
0.097386
0.0973919
0.0974101
0.0974491
0.0974869
0.0976203
0.0976854
0.0980075
0.0982282
0.0986788
0.0975519
0.0929786
0.0987155
0.0982226
0.0979555
0.097723
0.0976056
0.0974898
0.0974335
0.0974099
0.0973923
0.0973843
0.0973821
0.0973795
0.0973803
0.0973784
0.0973776
0.0973803
0.0973782
0.09738
0.097387
0.0973968
0.0974236
0.0974554
0.0974937
0.0976248
0.0976908
0.0980227
0.0982255
0.0986969
0.0975423
0.0929851
0.098736
0.098228
0.0979782
0.0977375
0.0976168
0.0975222
0.0974388
0.0974119
0.0973911
0.0973846
0.0973801
0.097379
0.0973793
0.0973775
0.0973792
0.0973781
0.0973783
0.0973798
0.0973845
0.0973929
0.0974142
0.0974384
0.0974927
0.0976306
0.0977013
0.0980449
0.0982305
0.0987216
0.0975295
0.0929941
0.0987803
0.0982396
0.0979994
0.097747
0.0976068
0.0974963
0.0974281
0.0974086
0.0973906
0.0973835
0.0973798
0.0973797
0.0973778
0.0973773
0.0973771
0.0973814
0.0973785
0.0973786
0.0973859
0.0973912
0.0974187
0.0974359
0.0974934
0.0976261
0.0977059
0.0980624
0.0982348
0.0987706
0.0975142
0.0930077
0.0988609
0.0982729
0.0980428
0.0977725
0.0975999
0.0975019
0.0974209
0.0974111
0.0973871
0.0973844
0.0973817
0.0973794
0.0973776
0.0973777
0.0973767
0.0973775
0.0973807
0.0973788
0.0973851
0.0973888
0.0974238
0.0974367
0.0975067
0.0976236
0.0977308
0.0980898
0.0982738
0.0988525
0.0974926
0.093028
0.09903
0.0983152
0.0980571
0.0978071
0.0975814
0.0975077
0.0974171
0.0974122
0.0973848
0.0973855
0.0973781
0.0973778
0.0973774
0.0973766
0.0973773
0.097377
0.097378
0.0973788
0.097384
0.0973858
0.0974149
0.0974243
0.0975136
0.0976067
0.0977638
0.0981053
0.0983212
0.0990393
0.0974722
0.0930628
0.0995002
0.0985401
0.0981102
0.097863
0.0975534
0.0975146
0.0974072
0.0974108
0.0973821
0.0973833
0.097378
0.0973779
0.0973767
0.0973768
0.0973764
0.0973769
0.0973779
0.0973782
0.0973844
0.0973828
0.0974173
0.0974163
0.0975236
0.0975781
0.0978361
0.0981367
0.0985832
0.0994425
0.0974428
0.0931162
0.100319
0.0988914
0.0980489
0.0980129
0.0975285
0.0975465
0.0974005
0.0974148
0.0973811
0.0973845
0.0973771
0.0973773
0.0973764
0.0973762
0.0973764
0.0973762
0.0973773
0.097377
0.0973834
0.0973801
0.0974167
0.0974055
0.0975501
0.0975473
0.0979723
0.0980973
0.0989298
0.10019
0.0974407
0.0932509
0.102229
0.100504
0.0981332
0.0981059
0.0974777
0.0975303
0.0973905
0.0974092
0.097379
0.0973828
0.0973772
0.0973776
0.0973766
0.0973765
0.0973766
0.0973767
0.0973778
0.0973775
0.0973837
0.097379
0.0974121
0.0973917
0.0975408
0.0974819
0.0981341
0.0980905
0.100562
0.101321
0.0975332
0.093515
0.106398
0.102324
0.0992097
0.0988185
0.0977315
0.0976516
0.0974944
0.097475
0.0974523
0.0974471
0.0974432
0.0974411
0.0974404
0.097439
0.0974392
0.0974376
0.0974395
0.0974358
0.0974459
0.0974325
0.0974868
0.097442
0.0977131
0.0975752
0.0989772
0.0983395
0.102674
0.100544
0.102132
0.0963651
0.144103
0.125193
0.114361
0.105821
0.102897
0.102274
0.101178
0.101534
0.101335
0.101439
0.101417
0.101447
0.101452
0.101469
0.101473
0.101493
0.101491
0.101525
0.101501
0.101604
0.101459
0.101917
0.101282
0.103278
0.102844
0.106389
0.112963
0.113388
0.195777
0.0929401
0.0983344
0.0981373
0.0978624
0.0977713
0.0976128
0.0975101
0.0974496
0.0929403
0.0983403
0.0981416
0.097863
0.097781
0.0976005
0.0975153
0.0974655
0.09294
0.0983367
0.098124
0.0978494
0.0977245
0.0975849
0.0974976
0.0974416
0.0929397
0.0983476
0.0981172
0.0978371
0.0977005
0.0975646
0.097513
0.0974681
0.0929395
0.0983466
0.0981068
0.0978317
0.0976847
0.0975542
0.0974797
0.0974328
0.0929393
0.0983554
0.0981006
0.0978244
0.0976644
0.0975404
0.0974812
0.0974491
0.0974243
0.0974108
0.0973981
0.0974251
0.0973918
0.0973916
0.097379
0.0973899
0.0973816
0.0929394
0.0983572
0.0980943
0.0978238
0.0976591
0.097538
0.0974685
0.097435
0.0974015
0.0974051
0.0973998
0.097427
0.0973958
0.0973829
0.0973774
0.0973793
0.097381
0.0974362
0.0974142
0.0973914
0.0973997
0.0974072
0.0974349
0.0974639
0.0975376
0.0976524
0.097831
0.0981604
0.0983151
0.0970313
0.0929396
0.0983629
0.0980893
0.0978217
0.0976484
0.097531
0.0974636
0.0974356
0.0974041
0.0974
0.0973817
0.0974013
0.0974534
0.0973816
0.0973848
0.0973824
0.0973904
0.0974728
0.0974277
0.0973974
0.0974084
0.097415
0.0974407
0.0974657
0.0975393
0.0976512
0.0978327
0.0981565
0.0983171
0.0970307
0.0929401
0.0983662
0.098085
0.0978241
0.0976464
0.0975327
0.0974632
0.0974356
0.0974028
0.097397
0.0973834
0.097382
0.0973905
0.0974279
0.097382
0.0974386
0.0973959
0.0973804
0.0973856
0.0973934
0.0973973
0.0974064
0.0974344
0.0974617
0.0975371
0.0976477
0.0978345
0.098153
0.0983207
0.0970301
0.0929408
0.0983708
0.0980812
0.0978265
0.0976428
0.0975323
0.0974621
0.0974373
0.0974036
0.0973981
0.0973797
0.0973881
0.0973825
0.0973818
0.0973981
0.0973811
0.0973779
0.0974001
0.0973916
0.0973957
0.0974037
0.097411
0.097441
0.097465
0.0975405
0.0976468
0.0978378
0.0981485
0.0983233
0.097029
0.0929418
0.0983749
0.0980774
0.097831
0.0976423
0.0975347
0.0974626
0.0974354
0.0974034
0.0973935
0.0973908
0.0974098
0.0974539
0.0973833
0.0973788
0.0973841
0.0974295
0.0973969
0.0973956
0.097395
0.0974043
0.0974095
0.0974386
0.0974634
0.0975404
0.0976451
0.0978422
0.0981448
0.0983277
0.0970279
0.0929431
0.0983802
0.0980749
0.0978379
0.0976445
0.0975406
0.0974689
0.0974451
0.0974106
0.0974039
0.0974049
0.0974336
0.0973894
0.0973935
0.0973774
0.0973884
0.0973808
0.0974639
0.0974306
0.0973951
0.0974059
0.0974115
0.0974441
0.0974678
0.0975457
0.0976456
0.097848
0.0981397
0.0983315
0.0970264
0.0929449
0.0983857
0.098071
0.0978458
0.0976463
0.0975471
0.097469
0.097441
0.0974065
0.097401
0.0973969
0.0974166
0.0973875
0.0973854
0.0973784
0.0973802
0.0973872
0.0974266
0.097412
0.097391
0.0974026
0.0974124
0.0974402
0.0974669
0.0975462
0.0976451
0.0978548
0.0981355
0.0983385
0.0970248
0.0929472
0.0983951
0.0980703
0.0978569
0.0976526
0.0975529
0.0974824
0.097454
0.0974182
0.0974066
0.0974012
0.0974351
0.0974048
0.0973839
0.0973774
0.0973787
0.097386
0.0974651
0.0974203
0.097394
0.0973959
0.0974122
0.0974447
0.0974745
0.097556
0.0976488
0.0978641