/*--------------------------------*- C++ -*----------------------------------*\
  =========                 |
  \\      /  F ield         | OpenFOAM: The Open Source CFD Toolbox
   \\    /   O peration     | Website:  https://openfoam.org
    \\  /    A nd           | Version:  10
     \\/     M anipulation  |
\*---------------------------------------------------------------------------*/
FoamFile
{
    format      ascii;
    class       volScalarField;
    location    "0.05";
    object      nut;
}
// * * * * * * * * * * * * * * * * * * * * * * * * * * * * * * * * * * * * * //

dimensions      [0 2 -1 0 0 0 0];

internalField   nonuniform List<scalar> 
116800
(
0.00228543
0.00152963
0.00225063
0.00311856
0.00312264
0.00228543
0.00152962
0.00225349
0.00311856
0.00312262
0.0031155
0.00228543
0.0015296
0.00225522
0.00311857
0.0031226
0.0031155
0.00311822
0.0031153
0.00228544
0.00152936
0.00225402
0.00311858
0.00312262
0.00311551
0.00311825
0.0031153
0.00311679
0.00311554
0.00311618
0.00311577
0.00311599
0.00311586
0.00311593
0.00228544
0.00152921
0.00225324
0.00311859
0.00312261
0.00311551
0.00311821
0.00311531
0.00311676
0.00311557
0.00311617
0.00311579
0.00311598
0.00311587
0.00311593
0.00311588
0.00228544
0.00152878
0.00224853
0.00311861
0.00312267
0.00311552
0.00311827
0.00311531
0.0031168
0.00311556
0.00311618
0.00311579
0.00311599
0.00311588
0.00311593
0.0031159
0.00311594
0.00228544
0.00152851
0.00224642
0.00311862
0.00312268
0.00311553
0.00311825
0.00311532
0.00311678
0.00311558
0.00311617
0.00311581
0.00311598
0.00311589
0.00311594
0.0031159
0.00311595
0.00311586
0.00228545
0.00152802
0.00224144
0.00311864
0.00312272
0.00311554
0.0031183
0.00311533
0.00311681
0.00311558
0.00311619
0.0031158
0.00311599
0.0031159
0.00311594
0.00311592
0.00311594
0.0031159
0.00311602
0.00311573
0.00311637
0.00228545
0.00152764
0.00223927
0.00311866
0.00312273
0.00311556
0.00311829
0.00311535
0.0031168
0.00311559
0.00311619
0.00311582
0.003116
0.00311591
0.00311594
0.00311593
0.00311595
0.00311591
0.00311603
0.00311574
0.00311636
0.00311537
0.00311733
0.0031151
0.00311957
0.00311505
0.00281901
0.00311697
0.00109647
0.0029473
0.00228546
0.00152714
0.00223622
0.00311869
0.00312275
0.00311557
0.0031183
0.00311536
0.00311681
0.00311562
0.00311618
0.00311584
0.00311599
0.00311593
0.00311595
0.00311596
0.00311595
0.00311594
0.00311603
0.00311578
0.00311635
0.00311539
0.0031173
0.00311511
0.00311955
0.00311506
0.00282653
0.00311698
0.00109725
0.00294681
0.00228546
0.00152665
0.00223517
0.00311871
0.00312275
0.00311559
0.00311829
0.00311538
0.0031168
0.00311564
0.00311619
0.00311586
0.00311601
0.00311594
0.00311597
0.00311597
0.00311597
0.00311594
0.00311605
0.00311578
0.00311636
0.00311541
0.00311729
0.00311512
0.00311953
0.00311507
0.00283447
0.00311698
0.00109817
0.00294628
0.00228547
0.00152606
0.00223458
0.00311874
0.00312274
0.00311561
0.00311828
0.0031154
0.00311679
0.00311566
0.0031162
0.00311588
0.00311603
0.00311596
0.00311598
0.00311598
0.00311598
0.00311597
0.00311605
0.00311583
0.00311635
0.00311544
0.00311727
0.00311513
0.0031195
0.00311509
0.00284658
0.00311698
0.0010994
0.00294572
0.00228548
0.00152541
0.00223551
0.00311877
0.00312271
0.00311563
0.00311826
0.00311542
0.00311678
0.0031157
0.0031162
0.0031159
0.00311604
0.00311597
0.003116
0.00311599
0.00311601
0.00311597
0.00311608
0.00311583
0.00311636
0.00311546
0.00311726
0.00311515
0.00311947
0.0031151
0.00285997
0.00311698
0.00110088
0.00294503
0.00228549
0.00152461
0.00223721
0.00311881
0.00312268
0.00311566
0.00311824
0.00311544
0.00311678
0.00311571
0.00311622
0.00311591
0.00311607
0.00311599
0.00311602
0.00311602
0.00311602
0.00311602
0.00311608
0.00311589
0.00311634
0.0031155
0.00311723
0.00311517
0.00311943
0.00311512
0.00287878
0.00311699
0.0011028
0.0029442
0.00228551
0.00152367
0.00224066
0.00311885
0.00312263
0.00311569
0.0031182
0.00311548
0.00311675
0.00311576
0.00311623
0.00311594
0.00311609
0.00311601
0.00311605
0.00311603
0.00311605
0.00311602
0.00311611
0.0031159
0.00311637
0.00311552
0.00311722
0.00311519
0.0031194
0.00311515
0.00290044
0.003117
0.00110517
0.00294312
0.00228553
0.00152246
0.00224443
0.00311891
0.00312257
0.00311573
0.00311818
0.00311551
0.00311675
0.00311579
0.00311626
0.00311596
0.00311612
0.00311603
0.00311607
0.00311606
0.00311606
0.00311606
0.00311612
0.00311595
0.00311637
0.00311558
0.00311719
0.00311522
0.00311935
0.00311517
0.0029301
0.00311701
0.00110827
0.00294176
0.00228556
0.00152093
0.00225132
0.00311897
0.00312248
0.00311577
0.00311812
0.00311555
0.00311671
0.00311585
0.00311626
0.00311601
0.00311615
0.00311605
0.00311611
0.00311606
0.00311612
0.00311606
0.00311617
0.00311596
0.0031164
0.00311561
0.00311718
0.00311525
0.00311931
0.00311521
0.0029655
0.00311702
0.00111226
0.00293995
0.00228559
0.00151883
0.00225745
0.00311906
0.00312239
0.00311582
0.00311809
0.00311559
0.00311671
0.00311589
0.00311629
0.00311605
0.00311617
0.00311609
0.00311613
0.0031161
0.00311613
0.0031161
0.00311618
0.00311601
0.00311641
0.00311568
0.00311715
0.00311529
0.00311924
0.00311525
0.00301356
0.00311704
0.00111759
0.0029374
0.00228564
0.00151607
0.00227043
0.00311916
0.00312225
0.00311589
0.00311802
0.00311565
0.00311669
0.00311596
0.0031163
0.0031161
0.00311619
0.00311613
0.00311616
0.00311612
0.00311617
0.00311611
0.00311622
0.00311603
0.00311644
0.00311574
0.00311715
0.00311535
0.00311917
0.0031153
0.00307639
0.00311707
0.00112494
0.00293395
0.00228571
0.00151203
0.00228217
0.00311929
0.00312213
0.00311595
0.00311799
0.00311571
0.0031167
0.00311602
0.00311632
0.00311614
0.00311622
0.00311616
0.00311619
0.00311616
0.00311619
0.00311615
0.00311624
0.00311608
0.00311645
0.00311581
0.00311713
0.00311541
0.00311908
0.00311537
0.00312622
0.0031171
0.001135
0.00292834
0.00228581
0.00150715
0.00231434
0.00311945
0.00312191
0.00311603
0.00311791
0.0031158
0.00311669
0.00311609
0.00311635
0.0031162
0.00311625
0.00311621
0.00311622
0.00311619
0.00311623
0.00311618
0.00311628
0.00311613
0.00311647
0.0031159
0.0031171
0.00311549
0.00311897
0.00311546
0.00312585
0.00311715
0.00115103
0.00292153
0.00228595
0.00149997
0.00234205
0.00311984
0.0031217
0.00311611
0.00311784
0.0031159
0.00311669
0.00311616
0.00311638
0.00311623
0.00311628
0.00311623
0.00311625
0.00311623
0.00311626
0.00311622
0.00311631
0.00311617
0.00311649
0.00311597
0.00311707
0.00311558
0.00311881
0.00311557
0.00312555
0.00311723
0.00117398
0.00291126
0.0022862
0.00149547
0.00244148
0.00312004
0.00312125
0.00311618
0.00311774
0.00311606
0.00311672
0.00311627
0.00311644
0.00311632
0.00311635
0.00311631
0.00311632
0.0031163
0.00311633
0.00311629
0.00311637
0.00311626
0.00311653
0.0031161
0.00311706
0.0031157
0.00311866
0.00311566
0.00312485
0.00311731
0.00121888
0.00290955
0.00228663
0.00148987
0.00250713
0.00312036
0.00312118
0.00311653
0.0031178
0.00311627
0.0031168
0.00311641
0.00311654
0.00311644
0.00311646
0.00311643
0.00311644
0.00311642
0.00311644
0.00311642
0.00311648
0.0031164
0.00311663
0.00311627
0.0031171
0.0031159
0.00311874
0.00311602
0.00312423
0.00311763
0.00128889
0.00294845
0.00228756
0.00149721
0.00282245
0.00312174
0.00312168
0.00311828
0.00311918
0.0031182
0.00311853
0.00311825
0.00311833
0.00311825
0.00311826
0.00311823
0.00311823
0.00311822
0.00311823
0.00311822
0.00311827
0.00311821
0.00311839
0.00311815
0.00311874
0.00311792
0.00311984
0.00311754
0.00312393
0.00311898
0.00147472
0.00321978
0.00226385
0.00150264
0.0026283
0.00313273
0.00313254
0.00312951
0.00313017
0.00312936
0.0031296
0.00312938
0.00312943
0.00312936
0.00312936
0.00312934
0.00312934
0.00312933
0.00312935
0.00312934
0.00312938
0.00312935
0.00312948
0.00312932
0.00312978
0.00312914
0.00313071
0.00312872
0.00313396
0.00312967
0.00186935
0.00329209
0.000759014
0.00125274
0.00254243
0.00327532
0.00327322
0.00327172
0.00327142
0.00327115
0.00327104
0.00327098
0.00327093
0.0032709
0.00327088
0.00327087
0.00327086
0.00327086
0.00327086
0.00327087
0.00327089
0.00327091
0.00327095
0.00327099
0.00327109
0.00327113
0.0032716
0.00327136
0.00327323
0.00327236
0.00199675
0.000822592
0.00304164
0.00833951
0.00941437
0.00939887
0.00982055
0.00304165
0.00833869
0.00941255
0.00939821
0.00981958
0.00982927
0.00304166
0.0083385
0.00941216
0.009398
0.00981902
0.00982878
0.00991601
0.0099152
0.00304166
0.0083381
0.00941238
0.00939773
0.00981943
0.009829
0.00991649
0.00991519
0.00993668
0.00993347
0.00993995
0.00993803
0.00993959
0.00993858
0.00993907
0.00304166
0.00833814
0.00941341
0.00939765
0.00981956
0.00982789
0.00991539
0.00991487
0.00993638
0.00993357
0.00993986
0.00993818
0.00993949
0.00993866
0.0099391
0.00993871
0.00304167
0.00833804
0.00941508
0.00939776
0.00982084
0.0098279
0.00991611
0.00991462
0.00993649
0.00993342
0.00993997
0.00993809
0.00993962
0.00993873
0.00993912
0.00993884
0.00993907
0.00304167
0.00833793
0.00941631
0.00939761
0.00982128
0.00982721
0.00991556
0.00991422
0.0099361
0.00993332
0.00993972
0.00993818
0.00993942
0.00993883
0.00993912
0.00993886
0.00993924
0.00993862
0.00304168
0.00833771
0.00941802
0.00939769
0.00982249
0.00982697
0.00991583
0.00991406
0.00993642
0.00993322
0.00993992
0.00993798
0.00993961
0.00993887
0.00993913
0.00993905
0.00993903
0.00993903
0.00993949
0.00993604
0.00993828
0.00304169
0.00833732
0.00941893
0.00939748
0.0098229
0.00982656
0.00991566
0.00991398
0.0099364
0.00993322
0.00993981
0.009938
0.00993959
0.00993887
0.00993915
0.00993906
0.00993905
0.00993895
0.00993955
0.0099361
0.00993825
0.00992395
0.00992901
0.0098723
0.00988203
0.00963899
0.00961585
0.00859322
0.007345
0.00492659
0.0030417
0.00833676
0.00941992
0.00939738
0.0098235
0.00982628
0.00991538
0.00991379
0.00993612
0.00993307
0.00993946
0.00993812
0.00993941
0.00993896
0.00993909
0.00993917
0.00993895
0.00993917
0.00993937
0.00993627
0.0099379
0.0099241
0.00992852
0.00987226
0.00988126
0.00963911
0.00961515
0.00859322
0.00733693
0.00492683
0.00304171
0.00833599
0.00942031
0.0093971
0.00982365
0.00982611
0.00991524
0.00991393
0.00993625
0.00993324
0.00993955
0.00993813
0.0099395
0.00993884
0.00993916
0.00993918
0.00993904
0.00993897
0.00993954
0.00993634
0.00993817
0.00992446
0.00992867
0.00987262
0.00988101
0.0096396
0.00961473
0.00859364
0.00732963
0.00492721
0.00304173
0.00833496
0.00942049
0.00939677
0.00982371
0.00982605
0.00991506
0.00991402
0.00993623
0.00993329
0.00993943
0.00993813
0.00993945
0.00993891
0.00993911
0.00993913
0.00993897
0.00993908
0.0099394
0.00993654
0.00993791
0.0099247
0.0099283
0.00987284
0.00988016
0.00963998
0.00961376
0.00859417
0.00731619
0.00492777
0.00304175
0.00833364
0.00942022
0.0093963
0.00982339
0.00982614
0.00991487
0.00991425
0.00993617
0.00993346
0.00993937
0.00993817
0.00993934
0.00993886
0.00993912
0.00993901
0.00993913
0.00993884
0.00993952
0.00993665
0.00993825
0.00992514
0.00992855
0.00987344
0.00987977
0.00964067
0.00961287
0.00859487
0.00730133
0.00492851
0.00304178
0.00833196
0.00941965
0.00939571
0.00982293
0.00982643
0.00991502
0.0099147
0.00993662
0.0099338
0.00993971
0.00993795
0.00993949
0.00993879
0.00993911
0.00993903
0.00993892
0.00993912
0.00993924
0.0099368
0.00993786
0.00992539
0.00992824
0.00987398
0.00987887
0.00964129
0.00961139
0.00859571
0.0072797
0.00492954
0.00304181
0.00832979
0.0094186
0.00939489
0.00982188
0.0098269
0.0099149
0.00991514
0.00993643
0.00993408
0.00993963
0.00993807
0.00993945
0.00993869
0.00993911
0.00993887
0.00993899
0.00993886
0.00993933
0.00993684
0.00993833
0.00992587
0.00992871
0.00987495
0.00987851
0.00964224
0.00960993
0.00859682
0.00725447
0.00493092
0.00304185
0.0083271
0.00941728
0.00939406
0.00982084
0.00982748
0.00991509
0.0099157
0.00993672
0.00993437
0.00993976
0.00993795
0.00993947
0.00993862
0.00993907
0.00993885
0.00993887
0.009939
0.00993918
0.00993697
0.00993819
0.0099263
0.00992872
0.00987606
0.00987781
0.00964314
0.00960761
0.00859823
0.00722074
0.00493285
0.00304191
0.00832349
0.00941524
0.00939297
0.00981916
0.00982837
0.00991505
0.00991644
0.00993639
0.00993472
0.00993956
0.0099381
0.00993934
0.00993843
0.00993909
0.0099386
0.00993909
0.00993858
0.00993933
0.00993703
0.00993881
0.00992699
0.0099295
0.00987772
0.00987777
0.00964452
0.00960488
0.0086003
0.00717522
0.00493554
0.00304199
0.00831888
0.00941275
0.00939216
0.00981791
0.0098297
0.00991551
0.00991743
0.00993655
0.00993496
0.00993947
0.00993812
0.00993921
0.00993851
0.00993892
0.00993862
0.00993881
0.00993864
0.00993916
0.00993711
0.00993872
0.00992744
0.00992977
0.00987938
0.00987758
0.00964636
0.00960144
0.00860293
0.00711833
0.00493935
0.00304209
0.00831185
0.00940833
0.00939131
0.00981605
0.00983142
0.00991563
0.00991873
0.00993645
0.00993543
0.0099393
0.0099382
0.00993905
0.00993846
0.00993886
0.00993848
0.00993888
0.00993843
0.0099392
0.00993718
0.00993904
0.00992811
0.00993081
0.0098815
0.009878
0.00964951
0.00959792
0.00860672
0.00702635
0.0049448
0.00302951
0.00830237
0.00940293
0.00939179
0.00981529
0.00983435
0.00991638
0.00991994
0.00993651
0.0099357
0.00993923
0.00993818
0.00993897
0.00993842
0.00993874
0.00993845
0.00993868
0.00993841
0.00993904
0.00993722
0.00993909
0.00992855
0.00993154
0.00988376
0.00987897
0.00965376
0.00959474
0.00861083
0.00691727
0.00495269
0.00301058
0.00828519
0.00939224
0.0093955
0.00981453
0.00983953
0.00991721
0.00992199
0.00993645
0.00993626
0.00993908
0.0099383
0.0099388
0.00993846
0.00993864
0.00993841
0.00993868
0.00993831
0.009939
0.00993733
0.00993929
0.00992931
0.00993258
0.00988698
0.00988155
0.00966152
0.00959284
0.0086191
0.00671652
0.00496504
0.00298056
0.00825816
0.00937756
0.00940258
0.00981298
0.00984613
0.00991763
0.00992383
0.00993642
0.00993661
0.00993897
0.00993816
0.00993866
0.00993829
0.00993848
0.00993825
0.00993849
0.00993818
0.00993879
0.00993736
0.00993934
0.00992993
0.00993369
0.00989005
0.00988538
0.00966825
0.00959329
0.00862432
0.00649777
0.00498256
0.00295876
0.00790126
0.00934298
0.00943208
0.00981601
0.00986035
0.00991909
0.00992712
0.00993658
0.00993731
0.00993895
0.00993822
0.00993855
0.0099383
0.0099384
0.00993826
0.00993842
0.00993818
0.00993869
0.00993754
0.00993949
0.00993107
0.00993541
0.00989578
0.00989461
0.00968866
0.00960778
0.00850862
0.0060591
0.00501433
0.00291799
0.00697883
0.00900339
0.00945785
0.00980389
0.00986966
0.00991709
0.00992866
0.00993603
0.00993708
0.0099384
0.00993766
0.00993793
0.00993768
0.00993776
0.0099376
0.00993776
0.00993756
0.00993798
0.00993716
0.00993894
0.00993118
0.00993599
0.00989731
0.00989973
0.00969353
0.00962557
0.00792503
0.00568891
0.0050569
0.00283628
0.00498556
0.00794302
0.00958329
0.00982342
0.00989896
0.00992189
0.00993272
0.00993597
0.00993658
0.00993764
0.00993693
0.00993712
0.00993695
0.009937
0.00993694
0.00993704
0.00993692
0.00993723
0.0099368
0.00993801
0.00993274
0.0099373
0.0099093
0.00991797
0.00975336
0.00970626
0.00721814
0.00499862
0.00513838
0.00238587
0.0040836
0.00501037
0.0093117
0.00969786
0.00977297
0.00985148
0.00982681
0.00984752
0.0098379
0.00984343
0.0098416
0.00984317
0.00984313
0.00984395
0.00984415
0.00984516
0.00984516
0.00984736
0.00984598
0.00985259
0.00984502
0.00986694
0.009825
0.00987684
0.00961093
0.00964484
0.00549336
0.00729421
0.00389359
0.000822401
0.0030361
0.00221412
0.00602429
0.00681283
0.00664667
0.00668511
0.00664182
0.006655
0.00664287
0.00664572
0.00664206
0.00664228
0.00664124
0.00664155
0.00664156
0.00664288
0.00664338
0.00664698
0.0066465
0.00665675
0.00664909
0.00668167
0.00664685
0.00675664
0.00664668
0.00617027
0.00632215
0.0023204
0.00270429
0.0030076
0.00846535
0.00936826
0.00974961
0.0030076
0.00845472
0.00936508
0.00974745
0.00986303
0.00991178
0.00300761
0.00845458
0.00936526
0.00974631
0.00986325
0.00991005
0.00994632
0.00995752
0.00300761
0.00844804
0.00936456
0.00974669
0.00986345
0.00991166
0.00994698
0.00995681
0.00996609
0.00996967
0.00997153
0.00997255
0.00997281
0.00997292
0.00997301
0.00300761
0.0084517
0.00936661
0.00974652
0.00986536
0.00991059
0.00994697
0.00995842
0.00996703
0.00997002
0.00997167
0.00997257
0.00997285
0.0099732
0.00997326
0.00997312
0.00300761
0.00844691
0.00936801
0.00974857
0.00986806
0.00991316
0.00994726
0.00995666
0.00996587
0.0099695
0.00997156
0.0099727
0.00997299
0.00997321
0.00997329
0.00997331
0.00997317
0.00300762
0.00844695
0.00936987
0.00974842
0.00986905
0.00991261
0.00994761
0.00995781
0.00996705
0.00996992
0.00997166
0.00997253
0.00997235
0.00997339
0.00997343
0.00997336
0.00997323
0.00997279
0.00300762
0.00844202
0.00937168
0.0097499
0.0098716
0.00991461
0.00994834
0.00995711
0.00996605
0.00996911
0.0099714
0.00997272
0.00997304
0.00997328
0.00997357
0.00997333
0.00997342
0.00997186
0.00997188
0.00997056
0.00996869
0.00300763
0.00843685
0.0093732
0.00974961
0.0098723
0.00991433
0.00994859
0.00995732
0.00996686
0.00996928
0.00997154
0.00997266
0.00997292
0.00997351
0.00997358
0.00997366
0.00997347
0.00997264
0.00997223
0.00997083
0.0099689
0.00996449
0.00995713
0.00994482
0.00991564
0.009864
0.00973754
0.00929987
0.00917637
0.00504509
0.00300763
0.0084294
0.00937476
0.00974993
0.0098737
0.00991496
0.00994876
0.00995696
0.00996619
0.00996898
0.00997157
0.00997279
0.00997249
0.00997349
0.00997368
0.00997364
0.00997334
0.00997257
0.00997204
0.00997057
0.00996842
0.00996422
0.00995668
0.00994459
0.00991531
0.00986439
0.00973703
0.00930086
0.009176
0.0050448
0.00300764
0.00841944
0.00937602
0.00974932
0.00987411
0.00991462
0.00994868
0.00995682
0.0099663
0.00996904
0.00997151
0.00997282
0.0099731
0.00997331
0.00997357
0.00997374
0.00997337
0.0099728
0.00997239
0.00997087
0.00996886
0.00996473
0.00995703
0.00994489
0.00991545
0.00986517
0.00973667
0.00930217
0.00917568
0.00504454
0.00300765
0.0084072
0.00937726
0.00974872
0.00987461
0.00991453
0.00994869
0.00995663
0.00996619
0.00996896
0.00997162
0.0099728
0.00997301
0.00997358
0.00997341
0.00997365
0.00997342
0.00997275
0.00997235
0.00997075
0.00996854
0.00996445
0.00995641
0.00994434
0.00991478
0.00986542
0.00973586
0.00930351
0.0091753
0.00504437
0.00300767
0.00839197
0.00937837
0.00974758
0.00987462
0.00991406
0.00994852
0.00995663
0.0099662
0.00996917
0.00997149
0.0099727
0.0099727
0.0099735
0.00997361
0.00997353
0.00997356
0.00997304
0.00997234
0.00997095
0.00996871
0.00996479
0.00995671
0.00994456
0.00991468
0.009866
0.00973502
0.00930494
0.00917479
0.00504427
0.00300769
0.00837223
0.00937939
0.00974615
0.00987446
0.00991368
0.00994856
0.00995655
0.00996627
0.00996918
0.00997141
0.00997259
0.00997306
0.00997333
0.00997353
0.00997364
0.00997341
0.00997301
0.00997212
0.00997088
0.00996854
0.00996447
0.00995607
0.00994381
0.00991373
0.00986598
0.00973371
0.00930651
0.00917415
0.00504432
0.00300772
0.00834937
0.0093805
0.00974419
0.00987388
0.00991279
0.00994835
0.00995669
0.00996646
0.00996948
0.00997168
0.00997275
0.00997296
0.00997342
0.00997341
0.00997373
0.00997347
0.00997307
0.00997238
0.00997087
0.00996886
0.00996476
0.00995663
0.00994429
0.00991369
0.00986634
0.00973228
0.00930824
0.00917325
0.00504453
0.00300775
0.00831844
0.00938127
0.00974215
0.00987333
0.00991263
0.00994846
0.00995673
0.00996648
0.00996943
0.00997148
0.00997273
0.00997263
0.00997322
0.00997331
0.00997338
0.0099731
0.0099729
0.00997229
0.00997096
0.00996926
0.00996473
0.00995634
0.00994364
0.00991267
0.0098658
0.00973025
0.00931036
0.00917209
0.00504504
0.00300779
0.00828037
0.00938208
0.0097389
0.00987193
0.00991079
0.00994794
0.00995727
0.00996687
0.00996995
0.0099718
0.00997281
0.00997319
0.00997293
0.00997298
0.0099734
0.00997353
0.00997288
0.00997259
0.00997094
0.0099693
0.00996491
0.00995709
0.00994449
0.00991283
0.00986584
0.00972816
0.00931283
0.00917031
0.00504596
0.00300785
0.00822824
0.00938246
0.00973658
0.00987144
0.00991172
0.00994825
0.00995698
0.00996617
0.00996997
0.00997166
0.00997287
0.00997282
0.00997311
0.00997314
0.00997327
0.00997327
0.00997302
0.00997269
0.00997128
0.00996984
0.00996496
0.00995698
0.00994379
0.00991179
0.00986482
0.00972534
0.00931592
0.00916762
0.00504745
0.00300793
0.00815566
0.00938168
0.00973174
0.00986879
0.00990947
0.00994757
0.00995865
0.00996668
0.0099703
0.00997167
0.00997277
0.00997306
0.00997299
0.00997303
0.00997324
0.00997306
0.00997295
0.00997276
0.00997126
0.00997008
0.00996484
0.0099576
0.00994429
0.00991245
0.00986426
0.00972206
0.00931826
0.00916363
0.00505002
0.00300804
0.00806186
0.00938174
0.00972973
0.00986847
0.00991291
0.00994797
0.00995849
0.00996626
0.00997044
0.00997164
0.00997278
0.00997264
0.00997299
0.00997307
0.009973
0.00997312
0.00997293
0.00997277
0.00997133
0.00997037
0.0099648
0.00995813
0.00994384
0.00991285
0.00986339
0.00971941
0.00932201
0.00915642
0.00505379
0.00300822
0.00789406
0.00937685
0.00972506
0.00986431
0.00991325
0.00994705
0.00996003
0.00996619
0.00997073
0.0099715
0.00997259
0.00997281
0.00997284
0.00997301
0.00997317
0.00997272
0.00997272
0.00997274
0.00997147
0.009971
0.00996527
0.00995964
0.00994319
0.00991482
0.00986174
0.00971633
0.00932296
0.00914368
0.00506053
0.00300849
0.00769047
0.00937162
0.00972518
0.00986093
0.00991753
0.00994574
0.00996173
0.00996641
0.00997114
0.0099716
0.00997272
0.00997264
0.00997299
0.00997292
0.00997303
0.0099731
0.00997294
0.00997281
0.00997142
0.0099713
0.00996517
0.00996191
0.00994219
0.00991826
0.00985778
0.00971692
0.00932272
0.00890966
0.00506937
0.00300904
0.00721419
0.00934286
0.00972791
0.0098548
0.00992505
0.00994521
0.00996449
0.00996642
0.00997158
0.00997164
0.0099728
0.00997287
0.00997294
0.00997296
0.00997304
0.00997288
0.0099728
0.00997282
0.00997161
0.00997182
0.00996569
0.00996451
0.00994235
0.00992604
0.0098537
0.00971984
0.00930042
0.00830842
0.00508382
0.00300983
0.00665624
0.00928381
0.00974944
0.00983245
0.00993402
0.00994045
0.0099666
0.00996615
0.00997206
0.00997173
0.00997285
0.00997277
0.00997302
0.00997291
0.009973
0.00997294
0.00997295
0.00997288
0.00997173
0.00997213
0.00996544
0.00996675
0.00993816
0.00993377
0.00983417
0.00974199
0.00926128
0.00764334
0.0051056
0.00301311
0.00508298
0.00843333
0.00977935
0.00982792
0.00994997
0.00994424
0.0099694
0.00996698
0.00997212
0.0099718
0.00997273
0.00997262
0.00997278
0.00997273
0.00997278
0.00997276
0.00997268
0.00997272
0.00997196
0.00997241
0.0099666
0.00997005
0.00994265
0.00995134
0.00982409
0.00978341
0.00849314
0.00621617
0.00514586
0.00266958
0.00454717
0.00619145
0.00948437
0.00969583
0.00982195
0.00988721
0.00987241
0.0098952
0.00988487
0.00989121
0.0098892
0.00989108
0.00989103
0.00989205
0.00989221
0.00989348
0.00989334
0.00989584
0.00989421
0.00990119
0.00989354
0.0099149
0.00986546
0.00992763
0.00963836
0.00979078
0.00596216
0.00901602
0.00408121
0.000813992
0.00399143
0.00344042
0.00574692
0.00667974
0.00646455
0.00650933
0.00646529
0.00647504
0.00646127
0.00646381
0.0064593
0.00645962
0.00645843
0.00645906
0.00645923
0.00646126
0.00646216
0.00646717
0.00646738
0.00648065
0.00647421
0.00651291
0.00648311
0.00660229
0.00651476
0.00677483
0.0060814
0.00259884
0.00313026
0.00300166
0.00958225
0.00965448
0.00980578
0.00985632
0.00991076
0.00300166
0.00958217
0.0096549
0.00980606
0.00985603
0.00990792
0.00993656
0.00995509
0.00300167
0.00958178
0.00965467
0.00980487
0.00985682
0.00991011
0.00994228
0.00995989
0.00996581
0.00997096
0.00997433
0.00997538
0.00997606
0.0099764
0.00997667
0.00300167
0.00958172
0.00965657
0.00980699
0.00985879
0.00990386
0.00992884
0.00995451
0.00996481
0.00997097
0.00997461
0.0099755
0.00997673
0.00997664
0.0099768
0.00997662
0.00300167
0.00958121
0.00965779
0.00980814
0.00986284
0.00991065
0.00994188
0.00995839
0.00996561
0.00997095
0.00997448
0.00997525
0.00997574
0.00997662
0.00997675
0.00997689
0.00997625
0.00300167
0.00958087
0.00965943
0.00980939
0.00986482
0.00990927
0.00993712
0.00995291
0.00996269
0.00997025
0.00997374
0.00997328
0.00997667
0.0099758
0.00997692
0.00997578
0.00997656
0.00997452
0.00300167
0.0095801
0.00966083
0.00981042
0.00986772
0.00991259
0.00994223
0.00995648
0.00996701
0.00997099
0.00997358
0.00997204
0.00997488
0.00997673
0.0099771
0.00997677
0.00997363
0.00997451
0.00997297
0.00997161
0.00996885
0.00300168
0.00957936
0.00966212
0.00981065
0.00986909
0.00991249
0.00994195
0.00995493
0.00996653
0.00997139
0.00997351
0.00997293
0.00997533
0.00997681
0.00997722
0.00997709
0.00997614
0.00997634
0.0099745
0.00997107
0.00996747
0.00996274
0.00995209
0.00994146
0.00990653
0.00987599
0.00979046
0.00965036
0.00955355
0.00507618
0.00300168
0.00957828
0.00966338
0.00981096
0.00987086
0.00991393
0.00994307
0.00995526
0.0099662
0.00996936
0.00997185
0.00997435
0.00997654
0.00997593
0.00997697
0.00997708
0.0099745
0.00997611
0.00997374
0.00997005
0.0099667
0.00996249
0.00995056
0.0099402
0.00990529
0.00987591
0.00978959
0.00965126
0.00955363
0.00507571
0.00300169
0.00957723
0.0096644
0.00981043
0.0098716
0.00991383
0.00994315
0.00995496
0.00996634
0.00996994
0.00997244
0.00997504
0.00997598
0.00997646
0.00997658
0.00997686
0.00997657
0.00997571
0.0099751
0.0099727
0.00996787
0.00996336
0.00995116
0.00994082
0.00990596
0.00987672
0.00978926
0.00965225
0.00955378
0.00507523
0.00300171
0.00957594
0.00966533
0.00980967
0.00987227
0.00991393
0.00994324
0.0099549
0.0099664
0.00996946
0.00997181
0.00997447
0.00997578
0.00997679
0.00997687
0.00997737
0.00997506
0.00997605
0.00997523
0.00997199
0.00996697
0.00996283
0.0099499
0.00993992
0.0099049
0.00987674
0.00978814
0.00965338
0.00955393
0.00507472
0.00300173
0.00957461
0.00966614
0.00980834
0.0098723
0.00991332
0.00994264
0.00995439
0.00996571
0.00996884
0.00997166
0.00997451
0.00997649
0.0099765
0.00997716
0.00997653
0.00997678
0.00997536
0.00997578
0.00997337
0.00996847
0.00996379
0.00995064
0.00994018
0.00990488
0.00987701
0.009787
0.00965448
0.0095541
0.00507421
0.00300176
0.00957302
0.00966684
0.0098064
0.00987188
0.0099123
0.00994256
0.00995512
0.00996713
0.0099712
0.00997278
0.00997226
0.00997443
0.00997673
0.0099773
0.00997681
0.00997419
0.00997527
0.00997413
0.0099703
0.00996609
0.0099625
0.00994949
0.00993942
0.00990375
0.00987673
0.00978534
0.0096558
0.00955433
0.00507369
0.00300179
0.0095711
0.00966764
0.00980435
0.00987106
0.00991099
0.00994094
0.00995428
0.00996546
0.00997041
0.00997332
0.00997431
0.00997537
0.0099766
0.00997707
0.00997712
0.00997661
0.00997604
0.00997517
0.00997224
0.00996887
0.00996372
0.00995097
0.00993966
0.00990325
0.00987636
0.00978329
0.00965711
0.00955454
0.00507321
0.00300184
0.00956846
0.00966801
0.00980095
0.00986926
0.00990822
0.00994048
0.00995496
0.00996694
0.00997219
0.00997343
0.00997401
0.00997502
0.00997598
0.00997733
0.00997682
0.0099741
0.00997471
0.00997386
0.00997149
0.00996764
0.00996228
0.00995019
0.00993878
0.00990183
0.00987526
0.00978088
0.00965864
0.00955461
0.00507277
0.0030019
0.00956498
0.00966868
0.00979806
0.00986754
0.00990657
0.0099368
0.00995267
0.00996343
0.00997114
0.00997372
0.00997427
0.00997617
0.00997605
0.0099758
0.00997608
0.00997633
0.0099743
0.00997549
0.00997365
0.00997115
0.00996475
0.00995258
0.00993899
0.00990011
0.00987396
0.00977755
0.00965989
0.00955423
0.00507247
0.00300197
0.0095598
0.00966835
0.0097931
0.00986486
0.00990403
0.00993875
0.00995716
0.00996554
0.0099715
0.00997436
0.00997512
0.00997659
0.00997684
0.00997705
0.00997687
0.00997597
0.00997635
0.0099758
0.00997371
0.00997044
0.00996175
0.00995165
0.00993798
0.00989925
0.00987265
0.00977445
0.00966131
0.00955278
0.00507238
0.00300208
0.00955232
0.00966786
0.009788
0.00986201
0.00990192
0.0099314
0.00995686
0.00996568
0.00997229
0.0099745
0.00997579
0.00997627
0.009976
0.00997657
0.00997701
0.00997643
0.00997635
0.00997609
0.0099743
0.00997139
0.00996419
0.00995601
0.00993782
0.00989736
0.00986988
0.00976952
0.00966132
0.00955085
0.0050728
0.00300223
0.00953884
0.00966564
0.00978268
0.00985904
0.00990399
0.00993738
0.00995916
0.00996624
0.00997222
0.00997469
0.009976
0.00997654
0.00997661
0.00997663
0.00997662
0.00997641
0.0099763
0.00997631
0.00997408
0.00997207
0.00996328
0.00995715
0.00993783
0.00989877
0.00986876
0.00976565
0.00966112
0.00954503
0.00507437
0.00300246
0.00951745
0.00965982
0.00977315
0.00985378
0.00990671
0.00993699
0.00996186
0.00996604
0.0099734
0.00997451
0.00997554
0.00997626
0.00997646
0.00997648
0.00997671
0.00997656
0.00997668
0.00997648
0.00997449
0.00997296
0.00996235
0.00995738
0.00993509
0.00990025
0.0098641
0.00976027
0.00965483
0.00953366
0.00507907
0.0030028
0.00947997
0.00965091
0.00976981
0.00984526
0.00991174
0.00993537
0.009963
0.00996577
0.00997399
0.0099745
0.00997646
0.00997643
0.00997669
0.00997678
0.0099765
0.00997663
0.00997634
0.00997636
0.00997461
0.00997387
0.00996472
0.00996098
0.009933
0.00990507
0.00985569
0.00975787
0.00964571
0.00950637
0.00508611
0.00300339
0.00940387
0.00960723
0.00975976
0.00983493
0.00992162
0.00993507
0.00996664
0.00996662
0.00997502
0.00997495
0.00997647
0.00997648
0.00997685
0.00997678
0.00997681
0.00997677
0.00997675
0.00997653
0.00997467
0.00997487
0.00996491
0.00996411
0.00993251
0.00991484
0.0098421
0.00975298
0.00959582
0.00945052
0.00510058
0.00300458
0.00924739
0.00953247
0.00977578
0.00979874
0.00992878
0.0099272
0.00996867
0.00996595
0.00997532
0.00997502
0.00997665
0.00997662
0.00997675
0.0099768
0.00997666
0.00997686
0.00997645
0.00997671
0.00997493
0.0099756
0.00996503
0.00996735
0.00992553
0.00992403
0.00980915
0.00976608
0.00952283
0.00933889
0.00511899
0.00300798
0.00597428
0.00913551
0.00976469
0.0097848
0.00994725
0.00993448
0.00997248
0.00996797
0.00997593
0.00997516
0.00997646
0.00997632
0.00997663
0.00997653
0.00997663
0.0099766
0.00997659
0.0099765
0.00997514
0.00997617
0.00996735
0.00997257
0.0099315
0.00994713
0.00977778
0.00978316
0.0090967
0.00744232
0.00516807
0.00282819
0.00540982
0.00643514
0.00932359
0.00960553
0.00978346
0.00988002
0.0098672
0.00989993
0.00988453
0.00989329
0.00989021
0.00989264
0.00989232
0.00989357
0.0098935
0.00989513
0.00989453
0.00989792
0.00989495
0.0099047
0.00989183
0.00992252
0.00983733
0.00991812
0.00950808
0.0097304
0.00649954
0.00919463
0.00461868
0.000815416
0.00394534
0.00422465
0.00544213
0.00666376
0.00624673
0.00643761
0.00637617
0.00639234
0.00637464
0.00638014
0.00637505
0.00637635
0.00637507
0.00637608
0.006376
0.00637835
0.00637851
0.00638433
0.00638227
0.00639864
0.00638469
0.00643555
0.00638591