/*--------------------------------*- C++ -*----------------------------------*\
  =========                 |
  \\      /  F ield         | OpenFOAM: The Open Source CFD Toolbox
   \\    /   O peration     | Website:  https://openfoam.org
    \\  /    A nd           | Version:  10
     \\/     M anipulation  |
\*---------------------------------------------------------------------------*/
FoamFile
{
    format      ascii;
    class       volScalarField;
    location    "0.05";
    object      omega_0;
}
// * * * * * * * * * * * * * * * * * * * * * * * * * * * * * * * * * * * * * //

dimensions      [0 0 -1 0 0 0 0];

internalField   nonuniform List<scalar> 
116800
(
39.7909
29.6984
29.8728
29.7101
29.7518
39.7909
29.6985
29.8727
29.7101
29.7516
29.6931
39.7909
29.6985
29.8726
29.7102
29.7514
29.6932
29.7158
29.6918
39.791
29.6986
29.8727
29.7103
29.7516
29.6932
29.7161
29.6918
29.7041
29.6943
29.6992
29.6961
29.6978
29.6968
29.6973
39.791
29.6987
29.8729
29.7104
29.7516
29.6933
29.7158
29.6919
29.7039
29.6945
29.6991
29.6963
29.6977
29.6969
29.6973
29.697
39.7911
29.6988
29.8733
29.7105
29.752
29.6934
29.7162
29.6919
29.7042
29.6944
29.6992
29.6963
29.6978
29.697
29.6973
29.6971
29.6973
39.7911
29.699
29.8735
29.7107
29.7521
29.6935
29.7161
29.692
29.704
29.6946
29.6991
29.6964
29.6977
29.6971
29.6973
29.6971
29.6975
29.6969
39.7912
29.6991
29.8739
29.7108
29.7524
29.6936
29.7164
29.6921
29.7043
29.6945
29.6993
29.6964
29.6978
29.6971
29.6974
29.6973
29.6973
29.6972
29.698
29.6958
29.7007
39.7912
29.6993
29.8742
29.711
29.7525
29.6937
29.7164
29.6922
29.7042
29.6947
29.6993
29.6965
29.6978
29.6972
29.6974
29.6974
29.6974
29.6972
29.698
29.6959
29.7006
29.6926
29.7085
29.69
29.727
29.6894
29.7919
29.6778
30.0361
28.5037
39.7913
29.6995
29.8744
29.7112
29.7526
29.6938
29.7164
29.6924
29.7042
29.6949
29.6993
29.6967
29.6978
29.6974
29.6975
29.6976
29.6974
29.6975
29.698
29.6962
29.7006
29.6928
29.7083
29.6901
29.7268
29.6894
29.7917
29.6778
30.0357
28.5037
39.7914
29.6997
29.8746
29.7114
29.7526
29.694
29.7164
29.6925
29.7042
29.6951
29.6993
29.6968
29.698
29.6974
29.6976
29.6977
29.6976
29.6975
29.6982
29.6963
29.7006
29.693
29.7082
29.6902
29.7267
29.6895
29.7914
29.6778
30.0352
28.5037
39.7916
29.7
29.8748
29.7117
29.7526
29.6941
29.7163
29.6927
29.7041
29.6953
29.6994
29.697
29.6981
29.6976
29.6977
29.6978
29.6977
29.6977
29.6982
29.6966
29.7005
29.6933
29.708
29.6903
29.7264
29.6897
29.791
29.6779
30.0347
28.5037
39.7917
29.7004
29.8749
29.712
29.7524
29.6943
29.7162
29.6929
29.704
29.6956
29.6994
29.6972
29.6982
29.6977
29.6979
29.6978
29.698
29.6977
29.6985
29.6967
29.7006
29.6934
29.7079
29.6904
29.7262
29.6898
29.7906
29.6779
30.034
28.5037
39.7919
29.7009
29.875
29.7123
29.7521
29.6946
29.716
29.6931
29.704
29.6957
29.6996
29.6972
29.6984
29.6979
29.6981
29.6981
29.698
29.6981
29.6984
29.6971
29.7005
29.6938
29.7077
29.6906
29.7259
29.69
29.7901
29.678
30.0331
28.5038
39.7922
29.7015
29.875
29.7127
29.7517
29.6949
29.7157
29.6934
29.7039
29.6961
29.6997
29.6975
29.6986
29.698
29.6983
29.6982
29.6983
29.6981
29.6987
29.6972
29.7008
29.6941
29.7076
29.6908
29.7256
29.6902
29.7895
29.678
30.032
28.5038
39.7925
29.7022
29.875
29.7132
29.7512
29.6952
29.7155
29.6937
29.7039
29.6963
29.6999
29.6977
29.6989
29.6982
29.6985
29.6984
29.6984
29.6985
29.6988
29.6976
29.7008
29.6945
29.7074
29.691
29.7252
29.6904
29.7887
29.6781
30.0306
28.5039
39.793
29.7032
29.8749
29.7138
29.7505
29.6956
29.7151
29.6941
29.7036
29.6969
29.7
29.6981
29.6991
29.6984
29.6988
29.6985
29.6989
29.6985
29.6992
29.6977
29.7011
29.6949
29.7074
29.6914
29.7249
29.6907
29.7878
29.6783
30.0289
28.504
39.7936
29.7045
29.8749
29.7146
29.7498
29.6961
29.7149
29.6945
29.7036
29.6972
29.7002
29.6984
29.6993
29.6987
29.699
29.6988
29.699
29.6988
29.6994
29.6981
29.7012
29.6955
29.7071
29.6917
29.7244
29.6911
29.7864
29.6784
30.0266
28.5042
39.7944
29.7063
29.8745
29.7155
29.7487
29.6966
29.7143
29.6951
29.7035
29.6978
29.7003
29.6988
29.6995
29.699
29.6993
29.699
29.6993
29.6989
29.6997
29.6984
29.7014
29.696
29.7072
29.6922
29.7238
29.6916
29.7848
29.6787
30.0235
28.5044
39.7955
29.7087
29.8742
29.7167
29.7478
29.6972
29.7141
29.6957
29.7036
29.6983
29.7006
29.6992
29.6998
29.6993
29.6995
29.6993
29.6995
29.6992
29.6999
29.6987
29.7015
29.6966
29.707
29.6928
29.7231
29.6922
29.7825
29.679
30.0191
28.5046
39.7972
29.712
29.8725
29.7182
29.7461
29.6979
29.7135
29.6965
29.7036
29.6989
29.7008
29.6997
29.7
29.6997
29.6998
29.6996
29.6999
29.6995
29.7002
29.6991
29.7018
29.6973
29.7069
29.6935
29.7222
29.693
29.7794
29.6795
30.0124
28.505
39.7997
29.7167
29.8711
29.7185
29.7443
29.6986
29.713
29.6974
29.7036
29.6994
29.7011
29.7
29.7003
29.7
29.7001
29.6999
29.7001
29.6998
29.7005
29.6995
29.7019
29.6979
29.7067
29.6943
29.721
29.6939
29.774
29.6802
30.0024
28.5056
39.8038
29.7235
29.8631
29.7204
29.7407
29.6993
29.7123
29.6987
29.7039
29.7003
29.7016
29.7007
29.7009
29.7006
29.7007
29.7005
29.7007
29.7005
29.701
29.7002
29.7024
29.699
29.7067
29.6955
29.7199
29.6947
29.7682
29.681
29.9849
28.5065
39.8109
29.7312
29.8572
29.7224
29.7361
29.6984
29.7104
29.6996
29.7037
29.7006
29.7016
29.7008
29.7009
29.7007
29.7007
29.7006
29.7008
29.7006
29.7011
29.7005
29.7023
29.6996
29.7062
29.6964
29.7167
29.6939
29.7606
29.6814
29.9578
28.5065
39.825
29.7363
29.8199
29.7109
29.7174
29.6902
29.6974
29.6894
29.692
29.6898
29.6903
29.6897
29.6897
29.6895
29.6895
29.6895
29.6895
29.6895
29.6898
29.6895
29.6908
29.689
29.6938
29.6871
29.703
29.6836
29.7352
29.6716
29.8978
28.5025
39.8379
29.685
29.7439
29.6232
29.6261
29.6016
29.6067
29.6002
29.6019
29.6002
29.6005
29.6
29.6
29.5998
29.5998
29.5998
29.5999
29.5998
29.6002
29.6
29.601
29.5998
29.6035
29.5984
29.6113
29.595
29.6369
29.584
29.7547
28.4536
39.8618
28.5109
28.4556
28.3845
28.37
28.3584
28.3561
28.354
28.3531
28.3526
28.3522
28.352
28.3518
28.3517
28.3517
28.3517
28.3517
28.3518
28.3519
28.3521
28.3524
28.3528
28.3536
28.354
28.3577
28.3559
28.3683
28.3568
28.4232
27.5773
30.6842
12.1205
10.6543
10.592
9.99971
30.6842
12.1225
10.6571
10.5938
10.0012
9.95015
30.6843
12.123
10.6577
10.5945
10.0022
9.95131
9.83879
9.83017
30.6843
12.1238
10.6573
10.5947
10.0014
9.9507
9.83799
9.83004
9.80391
9.8047
9.79725
9.79855
9.7969
9.7977
9.79723
30.6844
12.1235
10.6557
10.5948
10.0013
9.95273
9.83979
9.83074
9.80435
9.80465
9.79734
9.7984
9.79695
9.79762
9.79718
9.79758
30.6844
12.1232
10.653
10.5937
9.99914
9.9521
9.83858
9.8309
9.8042
9.80481
9.79721
9.79852
9.7969
9.79757
9.7972
9.79744
9.79724
30.6845
12.1232
10.6511
10.5938
9.99851
9.95333
9.83949
9.83168
9.80478
9.80502
9.79756
9.79849
9.79705
9.79748
9.79718
9.79748
9.79708
9.79781
30.6845
12.1231
10.6483
10.5928
9.99651
9.95322
9.83901
9.83173
9.80429
9.80508
9.79728
9.79872
9.79699
9.79745
9.79724
9.79725
9.79736
9.79742
9.79725
9.80155
9.80035
30.6846
12.1237
10.6469
10.5931
9.99588
9.95397
9.8393
9.83195
9.8043
9.8051
9.79743
9.7987
9.79701
9.79746
9.79723
9.79725
9.79732
9.79749
9.79714
9.80147
9.80036
9.81833
9.81689
9.88801
9.89505
10.2076
10.3462
11.69
11.7408
20.5642
30.6847
12.1245
10.6453
10.5931
9.9949
9.95431
9.83969
9.83224
9.80468
9.80536
9.79791
9.79859
9.79716
9.79738
9.79731
9.79714
9.79746
9.79726
9.79734
9.80133
9.8008
9.81821
9.81763
9.88833
9.8963
10.2077
10.3474
11.69
11.7425
20.5622
30.6848
12.126
10.6448
10.5938
9.99467
9.95477
9.83989
9.83212
9.80445
9.8051
9.79774
9.79854
9.79705
9.79752
9.79732
9.79715
9.79734
9.7975
9.79712
9.8011
9.80037
9.81763
9.81735
9.88791
9.89672
10.2071
10.3482
11.6892
11.7441
20.5595
30.685
12.128
10.6446
10.5947
9.99456
9.95506
9.84012
9.83205
9.80441
9.80505
9.79789
9.79856
9.79717
9.79746
9.79733
9.79722
9.79745
9.79739
9.79727
9.80092
9.80069
9.8174
9.81791
9.88792
9.89808
10.2069
10.35
11.6886
11.7463
20.5557
30.6852
12.1308
10.6452
10.5962
9.99509
9.95532
9.8404
9.83184
9.80445
9.80486
9.79795
9.79854
9.79723
9.79754
9.79731
9.7974
9.79726
9.79763
9.79711
9.80067
9.80015
9.81669
9.81746
9.88718
9.89868
10.2063
10.3517
11.6876
11.749
20.5508
30.6855
12.1344
10.6462
10.5982
9.9958
9.95528
9.84009
9.83122
9.80369
9.80431
9.79744
9.79877
9.79723
9.79764
9.79738
9.79737
9.79756
9.79735
9.79745
9.80064
9.80066
9.8165
9.81793
9.88681
9.90011
10.206
10.3543
11.6867
11.7526
20.5442
30.6858
12.1392
10.6481
10.601
9.99746
9.9552
9.84024
9.83076
9.8039
9.804
9.79751
9.79862
9.79718
9.79774
9.79737
9.79756
9.79748
9.79763
9.79733
9.80049
9.79992
9.81573
9.81714
9.88555
9.90064
10.2052
10.357
11.6855
11.7572
20.5356
30.6862
12.1451
10.6504
10.604
9.99904
9.9549
9.83983
9.82998
9.80335
9.80355
9.79729
9.79874
9.79723
9.79784
9.79746
9.79758
9.79766
9.79753
9.79752
9.8004
9.80008
9.81527
9.81709
9.88437
9.90173
10.2049
10.3612
11.6841
11.7633
20.5237
30.6867
12.1531
10.6539
10.608
10.0017
9.9545
9.83988
9.82917
9.80374
9.80318
9.79752
9.79857
9.79724
9.79804
9.79743
9.79788
9.79742
9.79795
9.79731
9.80019
9.79914
9.81419
9.81581
9.88216
9.90171
10.204
10.366
11.6819
11.7713
20.5076
30.6874
12.1631
10.6579
10.6115
10.0035
9.95316
9.83904
9.82773
9.80339
9.80284
9.7976
9.79855
9.79742
9.79797
9.7976
9.79784
9.7977
9.79791
9.79749
9.80015
9.7992
9.81372
9.81535
9.88028
9.90198
10.2028
10.3718
11.6792
11.7821
20.4849
30.6884
12.1785
10.6648
10.6161
10.0064
9.95172
9.83883
9.82606
9.80342
9.80226
9.79777
9.79843
9.79755
9.79803
9.79764
9.79802
9.79762
9.79813
9.79743
9.79999
9.79868
9.81274
9.81364
9.87764
9.90126
10.2
10.3776
11.6757
11.7989
20.4527
30.6898
12.1985
10.6727
10.6184
10.0074
9.94801
9.83753
9.82432
9.80322
9.80189
9.79783
9.79844
9.79763
9.79806
9.79775
9.79803
9.79783
9.79817
9.79757
9.79997
9.7985
9.8122
9.81241
9.87489
9.89961
10.1958
10.3827
11.6723
11.8233
20.4068
30.6919
12.2356
10.6885
10.6175
10.0085
9.94142
9.83618
9.82147
9.80322
9.80117
9.79799
9.7983
9.79779
9.79801
9.79784
9.79805
9.7978
9.79827
9.79758
9.79982
9.79812
9.81125
9.81066
9.87117
9.89539
10.1877
10.3855
11.665
11.8676
20.3348
30.695
12.2901
10.7089
10.6119
10.0107
9.93244
9.8354
9.81885
9.80315
9.80067
9.79809
9.79839
9.79789
9.79817
9.79796
9.79821
9.79797
9.79838
9.79777
9.79974
9.79791
9.81036
9.8087
9.86742
9.88912
10.181
10.385
11.6629
11.9331
20.235
30.7004
12.4147
10.7571
10.5755
10.0058
9.91229
9.83302
9.81423
9.80279
9.79976
9.79805
9.79829
9.79798
9.79813
9.79804
9.79818
9.79803
9.79838
9.79786
9.79956
9.79758
9.80895
9.80577
9.86032
9.87433
10.1569
10.3615
11.6523
12.0819
20.0532
30.707
12.6401
10.8692
10.5429
10.0258
9.89897
9.83587
9.81194
9.80337
9.79995
9.79865
9.79889
9.79862
9.79879
9.79869
9.79885
9.79869
9.79898
9.79854
9.79989
9.798
9.80867
9.80433
9.85873
9.86585
10.1561
10.3336
11.7085
12.271
19.83
30.7146
13.4416
11.1895
10.3484
9.99425
9.85602
9.82768
9.80604
9.80297
9.80029
9.79941
9.79969
9.79953
9.79962
9.79958
9.79965
9.79959
9.7998
9.79953
9.80041
9.79908
9.8066
9.8017
9.84216
9.83618
10.0781
10.1963
11.7995
12.7081
19.4347
30.6714
16.325
12.5701
10.7137
10.1896
10.0005
9.90986
9.92
9.89793
9.90538
9.89969
9.90107
9.89943
9.89934
9.89846
9.89823
9.89716
9.8972
9.89492
9.89674
9.88976
9.90033
9.87754
9.938
9.88991
10.2813
10.3082
12.9432
12.1682
21.5573
29.9428
34.2988
25.2261
17.677
15.0229
15.0325
15.065
15.0591
15.068
15.0762
15.0802
15.0861
15.0887
15.0915
15.0924
15.093
15.0918
15.0908
15.086
15.0848
15.0727
15.0747
15.0488
15.06
15.0054
15.0484
14.9102
16.7137
21.9506
59.9844
30.9275
10.9779
10.665
10.0761
30.9276
10.9794
10.6698
10.0792
9.91282
9.8454
30.9276
10.9799
10.6692
10.0808
9.91252
9.8478
9.79865
9.78364
30.9276
10.9809
10.6701
10.0802
9.91218
9.84557
9.79775
9.78458
9.77234
9.76763
9.76522
9.76391
9.76357
9.76344
9.76332
30.9277
10.981
10.6666
10.0804
9.90952
9.84707
9.79779
9.78248
9.77113
9.76721
9.76508
9.76392
9.76356
9.76317
9.76309
9.76322
30.9277
10.9819
10.6642
10.0773
9.90569
9.84355
9.7974
9.78481
9.77265
9.76791
9.76523
9.76378
9.76342
9.76314
9.76305
9.76302
9.76319
30.9277
10.9826
10.6612
10.0775
9.90435
9.84432
9.79694
9.78331
9.7711
9.76735
9.76513
9.76403
9.7643
9.76301
9.76291
9.76301
9.76323
9.7637
30.9277
10.9837
10.6582
10.0753
9.90076
9.84158
9.79594
9.78422
9.7724
9.76843
9.76548
9.7638
9.76343
9.76316
9.76278
9.76309
9.76296
9.76504
9.76491
9.76656
9.76899
30.9278
10.9851
10.6558
10.0758
9.8998
9.842
9.7956
9.78395
9.77132
9.76821
9.7653
9.76391
9.76361
9.76287
9.7628
9.76275
9.76292
9.76409
9.76446
9.76619
9.7687
9.77439
9.78425
9.80053
9.84026
9.91106
10.0926
10.7564
10.9464
19.4872
30.9279
10.9867
10.6533
10.0753
9.89786
9.84116
9.79535
9.78441
9.7722
9.76857
9.76526
9.76373
9.76422
9.76293
9.76269
9.76278
9.76313
9.7644
9.76474
9.76657
9.76936
9.77479
9.78488
9.80086
9.84076
9.91053
10.0934
10.7548
10.9472
19.4881
30.928
10.9888
10.6514
10.0762
9.89728
9.84163
9.79544
9.78458
9.77202
9.76847
9.76533
9.76369
9.7634
9.76318
9.76286
9.76285
9.76309
9.76378
9.76422
9.76613
9.76874
9.77408
9.78439
9.80045
9.8406
9.90947
10.094
10.7529
10.948
19.4889
30.9281
10.9913
10.6495
10.0772
9.89659
9.84178
9.79542
9.78482
9.77216
9.76857
9.76517
9.76372
9.76352
9.76283
9.76311
9.76275
9.76302
9.76398
9.76433
9.76633
9.7692
9.77448
9.78523
9.80119
9.84154
9.90912
10.0952
10.7509
10.949
19.4892
30.9283
10.9944
10.6478
10.0789
9.89657
9.84245
9.79564
9.78483
9.77216
9.7683
9.76537
9.76386
9.76393
9.76297
9.76283
9.76295
9.76294
9.76355
9.76435
9.76603
9.76895
9.774
9.78482
9.8009
9.84171
9.90833
10.0965
10.7488
10.9503
19.4892
30.9285
10.9983
10.6463
10.081
9.8968
9.84299
9.79557
9.78495
9.77204
9.76831
9.76549
9.76402
9.76346
9.76321
9.76293
9.76291
9.76304
9.76399
9.76471
9.76618
9.76922
9.77446
9.7857
9.80191
9.84303
9.90836
10.0985
10.7466
10.9518
19.4884
30.9287
11.003
10.6447
10.084
9.89761
9.84423
9.79586
9.78479
9.77182
9.76796
9.76517
9.76384
9.76363
9.76307
9.76307
9.76278
9.76303
9.76367
9.76434
9.76617
9.76878
9.77407
9.78494
9.80126
9.84312
9.90789
10.1006
10.7441
10.9539
19.4868
30.929
11.0091
10.6437
10.087
9.89838
9.8445
9.79571
9.78477
9.77181
9.76806
9.76546
9.7639
9.76408
9.76329
9.76319
9.76309
9.76346
9.76409
9.76447
9.76611
9.76829
9.77415
9.78536
9.80215
9.84453
9.90866
10.1037
10.741
10.9566
19.484
30.9295
11.0169
10.6427
10.0919
9.90035
9.84705
9.79644
9.78409
9.77132
9.76741
9.765
9.76376
9.76353
9.7637
9.76362
9.76312
9.76323
9.76369
9.76404
9.76617
9.76824
9.77392
9.78438
9.80103
9.84433
9.90864
10.1069
10.7375
10.9605
19.4792
30.93
11.0278
10.6425
10.0954
9.90105
9.84581
9.79605
9.78449
9.77229
9.76741
9.76521
9.7637
9.76377
9.76339
9.76346
9.76329
9.76332
9.76359
9.76398
9.76573
9.76758
9.77388
9.78453
9.80199
9.84575
9.91012
10.1112
10.7331
10.9659
19.472
30.9308
11.0433
10.6442
10.1027
9.90483
9.84894
9.79702
9.78229
9.77165
9.76699
9.76521
9.76381
9.76359
9.76351
9.76356
9.76329
9.76353
9.76364
9.76384
9.76578
9.76727
9.77409
9.78371
9.80137
9.84489
9.91099
10.1162
10.7301
10.974
19.46
30.9319
11.0655
10.6445
10.1059
9.90533
9.84425
9.7965
9.78251
9.77224
9.76682
9.76525
9.76382
9.76394
9.76354
9.7635
9.76353
9.76345
9.76367
9.76385
9.7657
9.7669
9.77419
9.78302
9.80201
9.84436
9.91233
10.1204
10.7249
10.9871
19.443
30.9337
11.1022
10.6528
10.113
9.91138
9.84384
9.79783
9.78051
9.7724
9.76644
9.76548
9.76401
9.76379
9.76366
9.76352
9.76335
9.76381
9.76386
9.76383
9.76552
9.76608
9.77361
9.78103
9.80298
9.84168
9.9149
10.1253
10.7244
11.0095
19.413
30.9363
11.1588
10.6609
10.1128
9.91639
9.838
9.79965
9.77825
9.77214
9.76588
9.76534
9.76388
9.76393
9.7635
9.76357
9.76346
9.76341
9.76365
9.76375
9.76559
9.76568
9.77378
9.77803
9.8044
9.837
9.92078
10.1245
10.7253
11.0522
19.3744
30.9417
11.2867
10.7047
10.1088
9.9257
9.82791
9.80065
9.77466
9.7722
9.76531
9.7653
9.76375
9.76366
9.76353
9.76349
9.76343
9.76358
9.76374
9.7637
9.76535
9.765
9.77318
9.77465
9.80448
9.82654
9.9273
10.1203
10.7606
11.1464
19.3102
30.949
11.5071
10.7914
10.0778
9.95812
9.81579
9.80728
9.77186
9.77265
9.76468
9.76519
9.76366
9.76374
9.76342
9.76351
9.76343
9.76348
9.76356
9.7636
9.76521
9.76459
9.77357
9.77169
9.81039
9.8162
9.95592
10.0885
10.8189
11.3086
19.2257
30.9596
12.3609
11.2125
10.0332
9.96662
9.79439
9.80269
9.76816
9.77164
9.76455
9.76512
9.76378
9.76389
9.76367
9.76369
9.76366
9.76368
9.76385
9.76379
9.76497
9.76423
9.77216
9.76747
9.80479
9.79299
9.97206
10.0313
11.2139
11.7231
19.1078
30.9055
15.0612
12.2477
10.398
10.1547
9.93513
9.86899
9.87034
9.84748
9.85548
9.84913
9.85063
9.8487
9.84861
9.84753
9.84733
9.84601
9.8462
9.84361
9.84571
9.83825
9.84897
9.82552
9.89238
9.82173
10.2226
10.0254
12.4855
11.2287
21.4433
30.1058
35.109
26.5312
18.8792
15.3875
15.475
15.4568
15.4499
15.4707
15.4815
15.4882
15.4962
15.4993
15.5028
15.5034
15.5038
15.5013
15.4993
15.4916
15.4886
15.4696
15.4686
15.429
15.4281
15.349
15.3316
15.1597
17.4112
21.9522
60.8259
30.9439
10.2905
10.1768
9.98193
9.9158
9.84428
30.9439
10.2908
10.1761
9.98169
9.91643
9.84837
9.81131
9.78743
30.9439
10.2912
10.1763
9.9831
9.91501
9.84505
9.80336
9.78088
9.77354
9.76704
9.76279
9.76147
9.76068
9.76022
9.75987
30.944
10.2921
10.1734
9.98042
9.91272
9.8539
9.82163
9.78824
9.77501
9.76713
9.76248
9.76142
9.75984
9.75996
9.75977
9.75998
30.944
10.2933
10.1714
9.97845
9.90673
9.84429
9.80382
9.7828
9.77381
9.76707
9.76264
9.7617
9.76119
9.76
9.75987
9.75965
9.76047
30.944
10.2943
10.169
9.97694
9.90437
9.84662
9.81057
9.79027
9.77776
9.76802
9.76362
9.76436
9.75995
9.7611
9.7597
9.76113
9.76012
9.76274
30.944
10.2959
10.1667
9.97528
9.90014
9.84181
9.80343
9.78533
9.77193
9.767
9.76381
9.76588
9.7626
9.75992
9.75951
9.75992
9.764
9.76273
9.76462
9.76624
9.76969
30.9441
10.2972
10.1648
9.9751
9.89845
9.84223
9.80404
9.78758
9.77269
9.76654
9.76393
9.76475
9.76201
9.75983
9.75943
9.75953
9.76077
9.76038
9.76267
9.76704
9.77152
9.77739
9.79114
9.8044
9.8499
9.88876
10.0022
10.1789
10.3227
19.2211
30.9441
10.299
10.1629
9.9746
9.89593
9.84016
9.80236
9.78695
9.77297
9.76907
9.76608
9.76329
9.76016
9.76099
9.75965
9.7597
9.76283
9.76069
9.76363
9.76828
9.77247
9.77767
9.7931
9.80601
9.85159
9.88889
10.0034
10.1776
10.3229
19.2225
30.9442
10.3006
10.1614
9.97541
9.89498
9.8404
9.8023
9.7874
9.77284
9.76835
9.76529
9.76201
9.7609
9.7603
9.76111
9.75981
9.76013
9.7612
9.76188
9.76481
9.77091
9.77648
9.79227
9.80512
9.85072
9.88781
10.0039
10.1762
10.3232
19.2241
30.9444
10.3024
10.16
9.97646
9.89404
9.84024
9.80208
9.7874
9.77272
9.76895
9.76609
9.76276
9.76143
9.76009
9.75983
9.75962
9.76213
9.76078
9.76173
9.76578
9.77215
9.77725
9.79395
9.80631
9.85218
9.88782
10.0056
10.1746
10.3234
19.2255
30.9446
10.3043
10.1589
9.97838
9.89403
9.84112
9.8029
9.78811
9.77367
9.76977
9.76649
9.76348
9.76026
9.76038
9.75955
9.76035
9.75989
9.76169
9.76106
9.76394
9.77013
9.77586
9.79286
9.80583
9.8522
9.88743
10.0072
10.173
10.3238
19.2269
30.9449
10.3065
10.1578
9.98108
9.89454
9.84242
9.80288
9.78707
9.77176
9.76671
9.76489
9.76563
9.76355
9.76002
9.75949
9.75996
9.76329
9.7618
9.76319
9.768
9.77334
9.77771
9.79448
9.80693
9.85382
9.88788
10.0096
10.1711
10.3241
19.2281
30.9452
10.309
10.1567
9.98405
9.89571
9.84427
9.80518
9.78834
9.77407
9.76782
9.76421
9.76298
9.76173
9.76017
9.75968
9.75961
9.76039
9.76081
9.76183
9.76554
9.76959
9.77593
9.79236
9.80641
9.85441
9.8883
10.0126
10.1692
10.3247
19.229
30.9456
10.3125
10.1562
9.98881
9.89797
9.84776
9.8055
9.7872
9.77198
9.76547
9.76407
9.76338
9.76241
9.76113
9.75957
9.75994
9.76354
9.76256
9.76358
9.7666
9.77137
9.77807
9.79362
9.80779
9.8564
9.88981
10.0161
10.1671
10.3255
19.2295
30.9462
10.3172
10.1554
9.99311
9.90051
9.85024
9.81079
9.79051
9.77679
9.76696
9.76377
9.76311
9.76071
9.76082
9.76116
9.76079
9.76051
9.76314
9.76161
9.76375
9.76673
9.77465
9.79024
9.80724
9.8585
9.8914
10.0208
10.1654
10.3272
19.2292
30.947
10.3243
10.1561
10
9.90384
9.85323
9.80773
9.78429
9.77385
9.76642
9.76291
9.76197
9.76032
9.76016
9.75978
9.75989
9.76101
9.76043
9.76113
9.76377
9.76786
9.77883
9.79174
9.80886
9.85978
9.89322
10.0255
10.1637
10.3307
19.2276
30.948
10.3344
10.1571
10.0074
9.90807
9.85642
9.81802
9.78508
9.77389
9.76555
9.7628
9.76115
9.76059
9.76088
9.76016
9.7599
9.76036
9.76044
9.76083
9.76298
9.76659
9.77557
9.78589
9.80893
9.86221
9.89697
10.0327
10.1641
10.3354
19.2236
30.9495
10.3535
10.1605
10.0149
9.91193
9.85334
9.80968
9.78184
9.77304
9.76557
9.76251
9.76092
9.76039
9.76015
9.76008
9.76008
9.76068
9.76051
9.76051
9.76332
9.76577
9.77687
9.78454
9.80899
9.86038
9.89853
10.0383
10.1647
10.3467
19.2149
30.9517
10.3849
10.1699
10.0288
9.91967
9.85003
9.81063
9.77855
9.7735
9.76411
9.76278
9.76154
9.76063
9.76027
9.76026
9.75995
9.76017
9.76036
9.76036
9.76286
9.76469
9.77828
9.7844
9.81296
9.85864
9.90557
10.0465
10.1752
10.3675
19.1934
30.955
10.4431
10.1835
10.0336
9.93153
9.84324
9.81275
9.77706
9.77387
9.76332
9.76289
9.76032
9.76032
9.76003
9.75987
9.76021
9.76005
9.76043
9.76048
9.76264
9.76354
9.77515
9.77971
9.81566
9.85226
9.91717
10.0505
10.1895
10.4164
19.1632
30.9607
10.5761
10.2524
10.0489
9.9474
9.83085
9.81376
9.77261
9.77294
9.76209
9.76226
9.76031
9.76028
9.75981
9.7599
9.75983
9.75991
9.76001
9.76026
9.76263
9.76229
9.7752
9.77593
9.81715
9.83987
9.93781
10.0584
10.2687
10.5195
19.1035
30.9663
10.8397
10.3682
10.0264
9.99848
9.82131
9.82446
9.76997
9.77394
9.76169
9.7623
9.76005
9.76009
9.75988
9.75981
9.75996
9.75976
9.76026
9.75998
9.76228
9.76134
9.77502
9.77174
9.82649
9.82783
9.98429
10.0411
10.3823
10.7234
19.0344
30.9766
11.8861
10.9892
10.0451
10.022
9.79826
9.81582
9.76533
9.77148
9.7609
9.76201
9.76024
9.7604
9.76002
9.76009
9.76001
9.76005
9.76017
9.76022
9.76211
9.76069
9.77235
9.76538
9.81974
9.79889
10.0318
10.023
11.0422
11.2594
18.8707
30.9195
15.0242
12.2943
10.6172
10.2797
9.98125
9.88224
9.87624
9.84354
9.8556
9.84697
9.84937
9.84693
9.84711
9.84581
9.84586
9.84419
9.84488
9.84137
9.84503
9.83467
9.85198
9.81877
9.92886
9.83703
10.3982
10.1035
12.6765
10.93
20.8047
30.1135
36.3322
28.1628
20.7196
15.675
16.2295
15.6732
15.6505
15.667
15.6779
15.6813
15.6897
15.6914
15.6952
15.6954
15.6961
15.6936
15.6926
15.6842
15.6848
15.6624
15.6723
15.6228
15.6422
15.5675
16.2343
15.4734
19.8052
23.4471
60.0153
30.9438
10.2543
10.1376
9.97117
9.92224
9.85517
9.81357
9.78886
30.9439
10.255
10.139
9.97127
9.92519
9.84997
9.81479
9.79421
30.9438
10.2551
10.1336
9.96719
9.90569
9.84536
9.80927
9.78592
30.9438
10.2561
10.1314
9.96259
9.89644
9.83704
9.81424
9.79526
30.9437
10.2564
10.1281
9.96104
9.89138
9.83423
9.80279
9.78282
30.9437
10.2574
10.126
9.95847
9.88396
9.82871
9.8029
9.78844
9.77856
9.77264
9.76795
9.77712
9.76502
9.76463
9.76005
9.76427
9.76105
30.9437
10.258
10.1239
9.95834
9.88222
9.82818
9.79877
9.78373
9.77047
9.77043
9.76832
9.77771
9.76652
9.76159
9.75939
9.75939
9.76035
9.77101
9.77316
9.76533
9.769
9.77258
9.78411
9.79711
9.82897
9.88047
9.96411
10.1528
10.2757
19.1683
30.9438
10.2589
10.1222
9.9577
9.87837
9.82554
9.79696
9.78387
9.77137
9.76882
9.76162
9.76869
9.78481
9.76108
9.75984
9.76132
9.76421
9.78422
9.77817
9.76721
9.77174
9.77477
9.7856
9.79725
9.82918
9.87981
9.96457
10.1513
10.2758
19.1699
30.9438
10.2598
10.1206
9.95857
9.87766
9.82623
9.79715
9.78429
9.77126
9.76823
9.76257
9.76163
9.76442
9.77783
9.76134
9.77225
9.76609
9.76049
9.76291
9.76602
9.76822
9.77227
9.78391
9.79626
9.82853
9.87863
9.96523
10.15
10.2761
19.1714
30.944
10.2609
10.1193
9.95945
9.8764
9.82606
9.7969
9.78505
9.77166
9.76876
9.76117
9.76387
9.76122
9.76092
9.76333
9.7605
9.7594
9.7681
9.76496
9.7666
9.77007
9.7735
9.78605
9.79727
9.82951
9.87812
9.96632
10.1483
10.2763
19.1729
30.9441
10.2621
10.1179
9.96104
9.87621
9.82695
9.79731
9.78443
9.77166
9.76688
9.76509
9.77196
9.78359
9.76166
9.76001
9.76179
9.7697
9.76679
9.76659
9.76645
9.77068
9.77349
9.78559
9.79707
9.82954
9.87757
9.96785
10.1469
10.2767
19.1743
30.9443
10.2637
10.1169
9.96344
9.87698
9.82906
9.79964
9.78792
9.77406
9.77054
9.77095
9.78088
9.764
9.76514
9.75927
9.7633
9.76061
9.78971
9.7792
9.7663
9.77102
9.77393
9.78748
9.79868
9.83131
9.87763
9.9698
10.1449
10.2771
19.1756
30.9446
10.2656
10.1154
9.96616
9.87767
9.83158
9.80015
9.78667
9.77294
9.7698
9.76766
9.77397
9.76297
9.76156
9.75965
9.75922
9.76209
9.76993
9.77052
9.76511
9.77008
9.77448
9.78613
9.79851
9.83152
9.87751
9.97215
10.1433
10.278
19.1766
30.945
10.2684
10.1148
9.96976
9.87978
9.8333
9.80432
9.79075
9.77691
9.77151
9.76931
9.77965
9.76956
9.76196
9.75938
9.75996
9.7626
9.79064
9.77548
9.76579
9.76731
9.77431
9.78794
9.80152
9.83523
9.87887
9.97525
10.141
10.2791
19.177
30.9455
10.2722
10.1131
9.9746
9.88298
9.84016
9.80418
9.78611
9.77275
9.76994
9.76122
9.76088
9.76841
9.77935
9.76565
9.76131
9.771
9.7637
9.76381
9.76708
9.7701
9.77721
9.78758
9.80223
9.83523
9.87985
9.97865
10.1393
10.2807
19.176
30.9462
10.2783
10.1134
9.97963
9.88526
9.8371
9.81091
9.79367
9.77804
9.76645
9.76121
9.76021
9.7595
9.75971
9.76162
9.76205
9.76007
9.76126
9.76193
9.76279
9.76884
9.77665
9.78867
9.80579
9.84049
9.88235
9.98318
10.1367
10.2829
19.1729
30.9473
10.2868
10.1138
9.98901
9.89596
9.85173
9.81304
9.78502
9.77218
9.76589
9.76169
9.75985
9.76196
9.76005
9.76407
9.75963
9.7618
9.75966
9.7603
9.76321
9.76708
9.77902
9.79265
9.81196
9.83851
9.88509
9.98807
10.136
10.286
19.1629
30.9488
10.2994
10.115
9.99545
9.89455
9.83374
9.81512
9.79052
9.77551
9.76488
9.76181
9.7613
9.76039
9.76075
9.76057
9.76301
9.76053
9.76172
9.7602
9.76238
9.76613
9.77837
9.79347
9.81371
9.8389
9.88838
9.99343
10.1346
10.2922
19.1498
30.9511
10.3205
10.1248
10.0116
9.92151
9.84549
9.81475
9.78416
9.77397
9.76396
9.76299
9.76041
9.76123
9.75977
9.76074
9.7601
9.76286
9.7603
9.76137
9.76212
9.76545
9.77639
9.7891
9.81721
9.83332
9.89459
10.004
10.142
10.3026
19.1227
30.9545
10.3784
10.1352
10.0142
9.92883
9.83823
9.81593
9.77956
9.77141
9.76271
9.76217
9.7618
9.76032
9.75956
9.75964
9.75953
9.75963
9.76049
9.75944
9.76234
9.76309
9.77637
9.78142
9.82092
9.82933
9.90538
10.0079
10.1531
10.342
19.0901
30.9603
10.5185
10.2041
10.0329
9.95559
9.82818
9.81464
9.77316
9.77214
9.7628
9.76127
9.75967
9.75951
9.75935
9.75918
9.75908
9.75937
9.75966
9.75954
9.76191
9.76194
9.77434
9.77628
9.8211
9.81812
9.92677
10.0212
10.2357
10.4522
19.0288
30.9685
10.7867
10.3152
10.0073
9.99443
9.80874
9.82838
9.76956
9.77248
9.76027
9.7617
9.75944
9.75943
9.75908
9.75911
9.75901
9.75904
9.75904
9.75919
9.76201
9.76237
9.77541
9.77098
9.83693
9.81363
9.97389
10.0025
10.3401
10.6615
18.9649
30.9789
11.8644
10.9605
10.0402
10.0261
9.7945
9.81954
9.76389
9.77114
9.76002
9.76137
9.75937
9.75944
9.75924
9.75926
9.75917
9.75932
9.7595
9.75944
9.7611
9.75976
9.77288
9.76395
9.82483
9.79128
10.0364
10.0026
11.0383
11.2135
18.8382
30.9208
15.0171
12.2817
10.6345
10.2924
9.98517
9.88385
9.87438
9.83899
9.8524
9.84305
9.84578
9.84332
9.84359
9.84213
9.84253
9.84043
9.84165
9.83778
9.84174
9.83135
9.84956
9.81423
9.93727
9.83241
10.4164
10.0888
12.6797
10.886
20.658
30.114
36.4983
28.5693
21.129
15.8124
16.4033
15.7143
15.6781
15.6963
15.706
15.7101
15.719
15.7209
15.7251
15.7252
15.7265
15.7239
15.7233
15.7154
15.716
15.6943
15.7053
15.6554
15.677
15.6318
16.4651
15.6095
20.3282
23.802
59.9858
30.9418
10.2428
10.052
9.9495
9.91414
30.9418
10.2434
10.0453
9.9319
9.89241
30.9417
10.2453
10.0472
9.93535
9.88094
30.9417
10.2459
10.0427
9.92666
9.86913
9.83999
9.82651
9.82067
30.9416
10.2478
10.0433
9.9286
9.8666
9.82652
9.79775
9.78063
30.9416
10.2487
10.0409
9.92624
9.86173
9.82663
9.80342
9.79433
9.77545
9.84625
9.7928
9.79865
9.78442
9.7798
9.78557
9.79252
9.82221
9.85839
9.93242
10.0569
10.2575
19.1579
30.9416
10.2505
10.0402
9.92611
9.85827
9.81887
9.7933
9.78022
9.77128
9.90389
9.81617
9.81886
9.78815
9.77779
9.78804
9.79616
9.82502
9.85913
9.9332
10.0556
10.2579
19.1593
30.9417
10.2519
10.0388
9.92635
9.85656
9.81933
9.79396
9.78276
9.77124
9.77144
9.78588
9.77331
9.78514
9.77682
9.76828
9.77625
9.77756
9.78806
9.79543
9.82381
9.85791
9.93373
10.0546
10.2585
19.1604
30.9419
10.2539
10.0378
9.92707
9.85527
9.81781
9.79221
9.78026
9.77026
9.77458
9.79559
9.7793
9.77986
9.76624
9.77345
9.78125
9.77806
9.79012
9.79643
9.82466
9.85738
9.93457
10.0531
10.259
19.1614
30.9421
10.256
10.0365
9.92836
9.85478
9.81885
9.794
9.78213
9.77286
9.77879
9.77743
9.87226
9.84576
9.78353
9.76649
9.77515
9.77559
9.78912
9.79649
9.82541
9.8573
9.9363
10.052
10.2598
19.1623
30.9424
10.2586
10.0356
9.9311
9.85605
9.82209
9.79517
9.78151
9.77254
9.77839
9.83324
9.92017
9.92481
9.81502
9.80304
9.79709
9.77881
9.78942
9.796
9.82489
9.85637
9.93724
10.05
10.2606
19.1625
30.9427
10.2618
10.0338
9.93263
9.85578
9.82368
9.80254
9.78836
9.78285
9.78364
9.79965
9.84517
9.83718
9.78013
9.78685
9.776
9.77432
9.78614
9.79675
9.82829
9.85777
9.94068
10.0489
10.2618
19.1626
30.9432
10.2655
10.0337
9.93953
9.86229
9.83533
9.80311
9.78562
9.77891
9.79863
9.8417
9.90453
9.92083
9.82706
9.78488
9.78805
9.78712
9.79209
9.80105
9.82837
9.858
9.94216
10.0467
10.2632
19.1609
30.9438
10.2708
10.0305
9.93879
9.85881
9.83398
9.82672
9.82156
9.82092
9.77235
9.78014
9.80452
9.79662
9.86433
9.86163
9.78999
9.77014
9.77721
9.77747
9.78635
9.80113
9.83913
9.86344
9.94946
10.0461
10.2651
19.1584
30.9447
10.2772
10.0335
9.95409
9.87681
9.85543
9.81061
9.78548
9.79545
9.77942
9.76713
9.76448
9.76443
9.78939
9.76559
9.76256
9.79916
9.76702
9.76058
9.76604
9.77581
9.81844
9.80348
9.8081
9.83428
9.86214
9.95149
10.0438
10.2678
19.1531
30.9458
10.2865
10.0296
9.95323
9.86667
9.87046
9.91474
9.79061
9.77746
9.76678
9.76447
9.7604
9.76335
9.77928
9.76135
9.77749
9.76324
9.76295
9.76095
9.7648
9.77847
9.78809
9.78735
9.80645
9.85477
9.87704
9.96327
10.0456
10.2714
19.1435
30.9474
10.2992
10.0377
9.97181
9.90264
9.86534
9.81055
9.77897
9.78241
9.77469
9.76414
9.7626
9.77844
9.76529
9.76353
9.76218
9.79706
9.7629
9.75956
9.76627
9.77481
9.79843
9.78611
9.7988
9.85005
9.87426
9.97146
10.0454
10.2779
19.1312
30.9498
10.3188
10.0448
9.99358
9.91107
9.86266
9.80852
9.7778
9.7848
9.76487
9.76569
9.78449
9.76895
9.76308
9.76173
9.76006
9.76553
9.79166
9.76178
9.76211
9.76598
9.82105
9.79695
9.81086
9.85354
9.89305
9.97893
10.0553
10.2874
19.1028
30.9533
10.3517
10.0578
9.99488
9.92696
9.8446
9.81098
9.77533
9.7813
9.76354
9.76526
9.76009
9.76172
9.76169
9.7605
9.76128
9.76063
9.76042
9.76594
9.76347
9.76679
9.78054
9.77902
9.81989
9.84908