/*--------------------------------*- C++ -*----------------------------------*\
  =========                 |
  \\      /  F ield         | OpenFOAM: The Open Source CFD Toolbox
   \\    /   O peration     | Website:  https://openfoam.org
    \\  /    A nd           | Version:  10
     \\/     M anipulation  |
\*---------------------------------------------------------------------------*/
FoamFile
{
    format      ascii;
    class       volScalarField;
    location    "0.05";
    object      omega;
}
// * * * * * * * * * * * * * * * * * * * * * * * * * * * * * * * * * * * * * //

dimensions      [0 0 -1 0 0 0 0];

internalField   nonuniform List<scalar> 
116800
(
39.7505
29.6798
29.8579
29.6873
29.731
39.7505
29.6799
29.8577
29.6873
29.7308
29.6696
39.7506
29.68
29.8576
29.6874
29.7306
29.6696
29.6933
29.6681
39.7506
29.6801
29.8578
29.6875
29.7307
29.6697
29.6936
29.6681
29.681
29.6705
29.6759
29.6725
29.6743
29.6732
29.6738
39.7506
29.6801
29.8579
29.6876
29.7307
29.6698
29.6933
29.6682
29.6808
29.6707
29.6757
29.6726
29.6742
29.6733
29.6738
29.6734
39.7507
29.6803
29.8583
29.6877
29.7312
29.6698
29.6938
29.6682
29.6811
29.6706
29.6758
29.6726
29.6743
29.6734
29.6738
29.6735
29.6738
39.7507
29.6804
29.8586
29.6879
29.7313
29.6699
29.6936
29.6683
29.6809
29.6708
29.6757
29.6728
29.6741
29.6735
29.6738
29.6735
29.6739
29.6732
39.7508
29.6805
29.859
29.6881
29.7317
29.67
29.694
29.6684
29.6812
29.6708
29.6759
29.6728
29.6743
29.6736
29.6738
29.6737
29.6738
29.6736
29.6745
29.6721
29.6774
39.7509
29.6807
29.8592
29.6882
29.7318
29.6702
29.6939
29.6685
29.6811
29.671
29.6759
29.6729
29.6743
29.6736
29.6739
29.6738
29.6739
29.6736
29.6746
29.6723
29.6773
29.6689
29.6856
29.6663
29.7051
29.6657
29.7727
29.6544
30.0261
28.4837
39.751
29.6809
29.8595
29.6885
29.7319
29.6703
29.694
29.6687
29.6812
29.6712
29.6759
29.6731
29.6743
29.6738
29.6739
29.674
29.6739
29.6739
29.6745
29.6726
29.6772
29.6691
29.6854
29.6663
29.7049
29.6658
29.7724
29.6544
30.0257
28.4837
39.7511
29.6812
29.8597
29.6887
29.7319
29.6705
29.6939
29.6688
29.6811
29.6714
29.676
29.6732
29.6745
29.6739
29.6741
29.6741
29.6741
29.6739
29.6748
29.6726
29.6773
29.6692
29.6853
29.6664
29.7047
29.6659
29.7721
29.6544
30.0252
28.4838
39.7512
29.6815
29.8599
29.6889
29.7318
29.6706
29.6939
29.669
29.681
29.6716
29.676
29.6734
29.6746
29.6741
29.6742
29.6743
29.6742
29.6742
29.6748
29.673
29.6772
29.6695
29.6851
29.6665
29.7045
29.666
29.7718
29.6545
30.0246
28.4838
39.7514
29.6819
29.86
29.6892
29.7316
29.6708
29.6937
29.6692
29.6809
29.6719
29.676
29.6736
29.6747
29.6742
29.6744
29.6743
29.6745
29.6742
29.675
29.673
29.6773
29.6697
29.685
29.6667
29.7042
29.6661
29.7714
29.6545
30.0239
28.4838
39.7516
29.6823
29.86
29.6896
29.7313
29.6711
29.6935
29.6694
29.6809
29.672
29.6762
29.6736
29.675
29.6743
29.6746
29.6745
29.6745
29.6746
29.675
29.6735
29.6772
29.6701
29.6848
29.6669
29.7039
29.6663
29.7708
29.6545
30.023
28.4839
39.7518
29.6829
29.86
29.69
29.7309
29.6714
29.6932
29.6697
29.6807
29.6724
29.6763
29.6739
29.6752
29.6745
29.6748
29.6746
29.6748
29.6746
29.6753
29.6736
29.6774
29.6703
29.6847
29.6671
29.7036
29.6665
29.7702
29.6546
30.0219
28.4839
39.7522
29.6837
29.86
29.6905
29.7304
29.6717
29.693
29.67
29.6807
29.6727
29.6765
29.6741
29.6754
29.6747
29.675
29.6749
29.6749
29.675
29.6754
29.674
29.6775
29.6708
29.6845
29.6673
29.7032
29.6668
29.7694
29.6547
30.0205
28.484
39.7526
29.6847
29.8599
29.6911
29.7296
29.6721
29.6925
29.6704
29.6804
29.6732
29.6766
29.6745
29.6757
29.6749
29.6754
29.675
29.6754
29.6749
29.6758
29.6741
29.6778
29.6711
29.6844
29.6676
29.7028
29.6671
29.7683
29.6549
30.0187
28.4841
39.7532
29.686
29.8599
29.6919
29.7289
29.6726
29.6923
29.6708
29.6804
29.6736
29.6768
29.6749
29.6759
29.6752
29.6755
29.6753
29.6755
29.6753
29.6759
29.6745
29.6778
29.6717
29.6842
29.668
29.7023
29.6675
29.7669
29.655
30.0163
28.4842
39.7541
29.6878
29.8595
29.6928
29.7277
29.6732
29.6917
29.6714
29.6803
29.6742
29.6769
29.6753
29.6761
29.6755
29.6758
29.6755
29.6759
29.6754
29.6763
29.6748
29.6781
29.6723
29.6842
29.6685
29.7017
29.6679
29.7652
29.6553
30.0131
28.4845
39.7552
29.6902
29.8591
29.694
29.7267
29.6738
29.6915
29.672
29.6804
29.6747
29.6772
29.6757
29.6764
29.6758
29.6761
29.6758
29.676
29.6757
29.6765
29.6752
29.6782
29.6729
29.684
29.6691
29.701
29.6686
29.7628
29.6556
30.0085
28.4848
39.7569
29.6936
29.8573
29.6955
29.7249
29.6745
29.6908
29.6728
29.6803
29.6753
29.6774
29.6762
29.6766
29.6762
29.6764
29.6761
29.6764
29.676
29.6768
29.6756
29.6784
29.6737
29.6839
29.6699
29.7
29.6694
29.7596
29.6561
30.0017
28.4852
39.7594
29.6984
29.8558
29.6959
29.723
29.6752
29.6902
29.6737
29.6804
29.6759
29.6777
29.6765
29.6769
29.6765
29.6766
29.6764
29.6767
29.6764
29.6771
29.676
29.6786
29.6743
29.6837
29.6707
29.6986
29.6703
29.7539
29.6568
29.9913
28.4858
39.7636
29.7053
29.8473
29.6978
29.7192
29.6759
29.6895
29.6751
29.6807
29.6768
29.6782
29.6773
29.6775
29.6772
29.6772
29.6771
29.6773
29.677
29.6776
29.6768
29.679
29.6755
29.6836
29.6718
29.6975
29.6712
29.7478
29.6576
29.9733
28.4867
39.7708
29.713
29.8413
29.6998
29.7145
29.675
29.6875
29.676
29.6805
29.6772
29.6782
29.6774
29.6775
29.6773
29.6773
29.6772
29.6774
29.6772
29.6777
29.677
29.679
29.676
29.6831
29.6727
29.6942
29.6704
29.74
29.658
29.9454
28.4867
39.7851
29.7184
29.8026
29.6883
29.6954
29.6668
29.6745
29.666
29.6688
29.6664
29.6671
29.6664
29.6664
29.6662
29.6662
29.6661
29.6662
29.6661
29.6665
29.6661
29.6676
29.6656
29.6707
29.6636
29.6803
29.6601
29.7138
29.6482
29.8839
28.4826
39.7981
29.6674
29.727
29.6007
29.6041
29.5784
29.5839
29.577
29.579
29.5771
29.5775
29.5769
29.5769
29.5767
29.5767
29.5767
29.5768
29.5767
29.5771
29.5768
29.578
29.5766
29.5806
29.5751
29.5887
29.5715
29.6153
29.5608
29.7387
28.4336
39.8239
28.4981
28.4383
28.3633
28.3484
28.3363
28.3339
28.3318
28.3309
28.3303
28.33
28.3297
28.3296
28.3295
28.3294
28.3294
28.3294
28.3295
28.3297
28.3299
28.3302
28.3305
28.3313
28.3317
28.3355
28.3337
28.3466
28.3349
28.4054
27.571
30.6602
12.1498
10.6578
10.6068
9.9991
30.6602
12.1519
10.6607
10.6086
10.0007
9.95079
30.6603
12.1524
10.6613
10.6094
10.0017
9.95198
9.83576
9.82723
30.6603
12.1532
10.661
10.6096
10.0009
9.95135
9.83493
9.82709
9.79997
9.8009
9.79308
9.79448
9.79271
9.79358
9.79305
30.6604
12.1529
10.6593
10.6097
10.0008
9.95343
9.8368
9.82782
9.80044
9.80085
9.79318
9.79433
9.79276
9.79349
9.79301
9.79345
30.6604
12.1526
10.6566
10.6085
9.99855
9.95279
9.83554
9.82798
9.80028
9.80102
9.79305
9.79445
9.79271
9.79344
9.79304
9.7933
9.79307
30.6604
12.1525
10.6546
10.6086
9.9979
9.95406
9.83648
9.8288
9.80089
9.80124
9.79341
9.79443
9.79288
9.79335
9.79302
9.79334
9.79291
9.7937
30.6605
12.1524
10.6517
10.6076
9.99583
9.95396
9.83597
9.82884
9.80038
9.8013
9.79313
9.79467
9.79281
9.79332
9.79308
9.79311
9.7932
9.7933
9.79309
9.79765
9.79629
30.6606
12.153
10.6503
10.608
9.99519
9.95473
9.83626
9.82907
9.80039
9.80133
9.79328
9.79465
9.79284
9.79333
9.79308
9.79311
9.79315
9.79338
9.79296
9.79758
9.7963
9.81508
9.8133
9.88712
9.89296
10.2156
10.3497
11.7252
11.7575
20.584
30.6607
12.1538
10.6486
10.6079
9.99417
9.95507
9.83666
9.82937
9.80078
9.80162
9.79378
9.79454
9.79299
9.79325
9.79315
9.793
9.79331
9.79314
9.79318
9.79743
9.79677
9.81496
9.81407
9.88745
9.89426
10.2156
10.351
11.7251
11.7591
20.582
30.6608
12.1553
10.6481
10.6086
9.99393
9.95554
9.83686
9.82924
9.80054
9.80135
9.79361
9.79449
9.79289
9.7934
9.79317
9.79302
9.79318
9.7934
9.79295
9.7972
9.79631
9.81436
9.81377
9.887
9.89466
10.215
10.3518
11.7244
11.7608
20.5791
30.661
12.1574
10.6479
10.6095
9.99382
9.95582
9.83709
9.82917
9.8005
9.8013
9.79377
9.79452
9.79301
9.79334
9.79318
9.79309
9.7933
9.79328
9.7931
9.79702
9.79666
9.81412
9.81434
9.88699
9.89606
10.2149
10.3536
11.7237
11.763
20.5751
30.6612
12.1602
10.6485
10.6111
9.99437
9.95606
9.83738
9.82894
9.80054
9.8011
9.79383
9.7945
9.79308
9.79342
9.79317
9.79327
9.79311
9.79353
9.79293
9.79676
9.79609
9.81339
9.81387
9.88622
9.89665
10.2142
10.3553
11.7228
11.7658
20.5701
30.6615
12.1639
10.6496
10.6131
9.99511
9.956
9.83705
9.8283
9.79975
9.80053
9.7933
9.79473
9.79308
9.79352
9.79325
9.79324
9.79342
9.79324
9.7933
9.79673
9.79663
9.81319
9.81436
9.88582
9.89814
10.2139
10.3581
11.7219
11.7695
20.5632
30.6618
12.1688
10.6516
10.6159
9.99683
9.95589
9.83722
9.82783
9.79997
9.80021
9.79338
9.79457
9.79303
9.79363
9.79323
9.79344
9.79334
9.79353
9.79316
9.79657
9.79586
9.81239
9.81353
9.88451
9.89867
10.213
10.3608
11.7206
11.7742
20.5543
30.6622
12.1748
10.654
10.6189
9.99846
9.95555
9.8368
9.82701
9.7994
9.79973
9.79315
9.79469
9.79308
9.79373
9.79333
9.79346
9.79353
9.79342
9.79337
9.79647
9.79603
9.81192
9.8135
9.88328
9.8998
10.2127
10.3652
11.7192
11.7804
20.5422
30.6628
12.183
10.6577
10.6229
10.0012
9.95509
9.83686
9.82618
9.79981
9.79935
9.79339
9.7945
9.7931
9.79394
9.79331
9.79377
9.79328
9.79386
9.79315
9.79624
9.79505
9.81078
9.81217
9.88099
9.89977
10.2117
10.37
11.7169
11.7886
20.5255
30.6635
12.1931
10.6618
10.6265
10.0031
9.95368
9.836
9.82468
9.79944
9.799
9.79347
9.79449
9.79329
9.79387
9.79348
9.79373
9.79358
9.79382
9.79334
9.79619
9.79513
9.8103
9.81169
9.87902
9.90006
10.2104
10.376
11.7142
11.7997
20.5022
30.6645
12.2088
10.6691
10.6311
10.0061
9.95214
9.83577
9.82293
9.79948
9.79838
9.79365
9.79436
9.79342
9.79393
9.79352
9.79392
9.7935
9.79405
9.79328
9.79603
9.79458
9.80927
9.80992
9.87626
9.89932
10.2075
10.382
11.7105
11.8168
20.4692
30.6659
12.229
10.6772
10.6335
10.0071
9.94829
9.83443
9.82113
9.79928
9.798
9.79371
9.79437
9.7935
9.79397
9.79364
9.79393
9.79372
9.79408
9.79343
9.796
9.7944
9.8087
9.80865
9.87339
9.89764
10.203
10.3872
11.707
11.8417
20.4222
30.668
12.2668
10.6934
10.6324
10.0083
9.94141
9.83301
9.81817
9.79927
9.79724
9.79388
9.79422
9.79367
9.79391
9.79373
9.79396
9.79368
9.79419
9.79345
9.79583
9.794
9.80771
9.80684
9.86946
9.8933
10.1945
10.3902
11.6993
11.887
20.3487
30.6712
12.322
10.7144
10.6267
10.0107
9.93215
9.83223
9.81549
9.7992
9.79672
9.79399
9.79432
9.79378
9.79408
9.79385
9.79412
9.79386
9.7943
9.79365
9.79575
9.79379
9.80678
9.80485
9.86555
9.8869
10.1876
10.3897
11.6971
11.9537
20.2471
30.6767
12.4483
10.7639
10.5893
10.0057
9.91128
9.82973
9.81071
9.79882
9.79576
9.79395
9.79422
9.79388
9.79404
9.79394
9.79409
9.79392
9.7943
9.79374
9.79555
9.79345
9.80529
9.80184
9.85809
9.87172
10.1625
10.366
11.6856
12.1055
20.0621
30.6834
12.6783
10.8781
10.556
10.0265
9.8977
9.83276
9.80838
9.79945
9.79596
9.79457
9.79483
9.79454
9.79472
9.79461
9.79478
9.79461
9.79493
9.79444
9.79588
9.79388
9.80501
9.80041
9.85647
9.86317
10.1614
10.3377
11.7422
12.2976
19.837
30.691
13.4991
11.2047
10.357
9.99419
9.85347
9.82431
9.80223
9.79902
9.79629
9.79535
9.79565
9.79547
9.79557
9.79552
9.7956
9.79553
9.79576
9.79546
9.79639
9.79499
9.8028
9.79769
9.83928
9.83286
10.0807
10.1988
11.8305
12.742
19.4409
30.6478
16.4957
12.6095
10.7357
10.1936
10.0034
9.90819
9.91995
9.8965
9.90453
9.89839
9.89993
9.89815
9.89809
9.89715
9.89692
9.89579
9.89588
9.89343
9.89547
9.88799
9.89934
9.87519
9.93798
9.88673
10.288
10.3114
12.9884
12.1759
21.6234
29.9225
34.998
25.5499
18.0417
15.243
15.2485
15.2785
15.2726
15.2818
15.2905
15.2945
15.3008
15.3034
15.3064
15.3073
15.3079
15.3066
15.3055
15.3003
15.2992
15.2859
15.2884
15.2602
15.2725
15.2146
15.2583
15.1185
17.0374
22.0858
60.9243
30.9026
10.9907
10.6736
10.0766
30.9026
10.9922
10.6785
10.0798
9.91084
9.84266
30.9027
10.9928
10.6778
10.0815
9.91052
9.84513
9.79486
9.7796
30.9027
10.9938
10.6788
10.0808
9.9102
9.84286
9.79396
9.78062
9.76799
9.76311
9.76061
9.75925
9.7589
9.75876
9.75863
30.9027
10.9939
10.6752
10.081
9.90744
9.84437
9.79397
9.7784
9.76671
9.76267
9.76047
9.75926
9.75889
9.75848
9.7584
9.75853
30.9027
10.9948
10.6728
10.0778
9.90353
9.84076
9.79357
9.78085
9.76831
9.7634
9.76062
9.75912
9.75874
9.75845
9.75836
9.75833
9.75851
30.9028
10.9954
10.6696
10.078
9.90213
9.84153
9.79307
9.77926
9.76668
9.76282
9.76052
9.75938
9.75967
9.75831
9.75822
9.75832
9.75854
9.75903
30.9028
10.9966
10.6666
10.0758
9.89845
9.83872
9.79205
9.78021
9.76804
9.76395
9.76088
9.75914
9.75876
9.75848
9.75808
9.75841
9.75827
9.76044
9.7603
9.76202
9.76451
30.9029
10.998
10.6642
10.0762
9.89746
9.83913
9.79168
9.77991
9.7669
9.7637
9.76069
9.75924
9.75895
9.75818
9.7581
9.75805
9.75823
9.75946
9.75983
9.76163
9.7642
9.77011
9.78016
9.79681
9.83718
9.90912
10.0932
10.7679
10.9547
19.4806
30.9029
10.9997
10.6616
10.0757
9.89546
9.83826
9.79142
9.78038
9.76781
9.76409
9.76066
9.75907
9.75958
9.75824
9.75799
9.75808
9.75844
9.75981
9.76013
9.76203
9.76489
9.77052
9.7808
9.79715
9.83769
9.90858
10.094
10.7664
10.9555
19.4814
30.903
11.0018
10.6597
10.0767
9.89489
9.83875
9.79151
9.78055
9.76762
9.76398
9.76073
9.75902
9.75873
9.75849
9.75816
9.75816
9.75841
9.75914
9.75958
9.76157
9.76424
9.76978
9.78029
9.79672
9.83751
9.90748
10.0946
10.7644
10.9563
19.4822
30.9032
11.0044
10.6577
10.0776
9.89418
9.83889
9.79149
9.78079
9.76777
9.76409
9.76057
9.75906
9.75886
9.75813
9.75842
9.75805
9.75833
9.75935
9.7597
9.76178
9.76472
9.77019
9.78116
9.79749
9.83849
9.90714
10.0959
10.7624
10.9573
19.4824
30.9033
11.0075
10.656
10.0794
9.89417
9.83959
9.79171
9.7808
9.76776
9.7638
9.76077
9.7592
9.75928
9.75828
9.75813
9.75826
9.75825
9.75889
9.75972
9.76147
9.76446
9.76969
9.78072
9.79717
9.83864
9.90632
10.0972
10.7603
10.9586
19.4824
30.9035
11.0114
10.6545
10.0815
9.89443
9.84013
9.79164
9.78092
9.76764
9.76381
9.7609
9.75935
9.75879
9.75853
9.75823
9.75821
9.75835
9.75938
9.76009
9.76162
9.76474
9.77016
9.78164
9.79823
9.84001
9.90638
10.0992
10.758
10.9602
19.4815
30.9038
11.0162
10.6529
10.0846
9.89528
9.84141
9.79193
9.78075
9.7674
9.76344
9.76056
9.75917
9.75896
9.75839
9.75839
9.75808
9.75834
9.75904
9.75971
9.76161
9.76429
9.76976
9.78085
9.79754
9.84009
9.9059
10.1014
10.7555
10.9623
19.4799
30.9041
11.0224
10.6519
10.0877
9.89609
9.84167
9.79179
9.78074
9.76741
9.76356
9.76087
9.75922
9.75943
9.7586
9.7585
9.75839
9.75878
9.75947
9.75983
9.76155
9.76378
9.76984
9.78129
9.79847
9.84155
9.90673
10.1046
10.7524
10.965
19.4768
30.9045
11.0304
10.651
10.0927
9.89812
9.84428
9.79253
9.78002
9.76688
9.76287
9.76039
9.75908
9.75888
9.75902
9.75895
9.75843
9.75854
9.75903
9.75939
9.76162
9.76373
9.7696
9.78029
9.79731
9.84134
9.90671
10.1078
10.7489
10.9689
19.4719
30.9051
11.0415
10.6509
10.0963
9.89885
9.843
9.79216
9.78047
9.7679
9.76288
9.7606
9.75903
9.7591
9.75871
9.75879
9.7586
9.75863
9.75894
9.75933
9.76115
9.76305
9.76956
9.78045
9.79832
9.8428
9.90824
10.1122
10.7444
10.9744
19.4645
30.9059
11.0572
10.6527
10.1038
9.90275
9.84623
9.79315
9.77818
9.76722
9.76244
9.7606
9.75914
9.75893
9.75883
9.75889
9.75861
9.75885
9.75898
9.75917
9.76121
9.76272
9.76977
9.77961
9.79767
9.84192
9.90914
10.1174
10.7413
10.9826
19.4522
30.907
11.0798
10.6531
10.1071
9.90326
9.8414
9.79263
9.77842
9.76784
9.76226
9.76064
9.75915
9.75928
9.75886
9.75883
9.75885
9.75876
9.75902
9.75918
9.76112
9.76234
9.76986
9.77891
9.79833
9.84139
9.91052
10.1217
10.7359
10.9959
19.4349
30.9088
11.1173
10.6617
10.1144
9.90948
9.84099
9.79398
9.77634
9.76799
9.76187
9.76088
9.75934
9.75912
9.75898
9.75884
9.75866
9.75914
9.7592
9.75916
9.76092
9.76148
9.76925
9.77684
9.79929
9.83863
9.91312
10.1268
10.7354
11.0186
19.4044
30.9115
11.1749
10.67
10.1142
9.91461
9.83502
9.79585
9.77402
9.76772
9.76128
9.76072
9.75921
9.75926
9.75882
9.75889
9.75877
9.75872
9.75898
9.75908
9.761
9.76108
9.76943
9.77376
9.80076
9.83388
9.91914
10.126
10.7362
11.0621
19.3652
30.917
11.3054
10.7147
10.1102
9.92413
9.82469
9.79684
9.7703
9.76778
9.76069
9.76069
9.75907
9.75899
9.75885
9.7588
9.75874
9.75889
9.75908
9.75902
9.76074
9.76036
9.76879
9.77027
9.80078
9.82319
9.92576
10.1218
10.7719
11.1582
19.3004
30.9243
11.5306
10.8031
10.0786
9.95739
9.81235
9.80369
9.76744
9.76825
9.76004
9.76057
9.75898
9.75907
9.75873
9.75882
9.75874
9.7588
9.75889
9.75891
9.76061
9.75995
9.76921
9.76725
9.80686
9.81268
9.955
10.0896
10.8311
11.3229
19.2163
30.9355
12.4071
11.2299
10.0337
9.96604
9.79049
9.79894
9.76364
9.7672
9.7599
9.76051
9.75911
9.75923
9.75899
9.75902
9.75898
9.759
9.75919
9.75911
9.76035
9.75957
9.76774
9.7629
9.8011
9.78896
9.97166
10.0312
11.2299
11.7469
19.1029
30.882
15.2184
12.2807
10.4143
10.1572
9.93692
9.86641
9.86948
9.84524
9.85386
9.84704
9.84873
9.84664
9.84658
9.84543
9.84525
9.84384
9.84409
9.84131
9.84365
9.83567
9.84715
9.82234
9.8913
9.81798
10.2273
10.0236
12.5247
11.23
21.5087
30.0848
35.8476
26.8937
19.2681
15.6254
15.7207
15.6866
15.6789
15.7004
15.7117
15.7184
15.7268
15.7299
15.7336
15.7342
15.7346
15.732
15.73
15.7218
15.719
15.6989
15.6985
15.6566
15.6566
15.5751
15.5568
15.39
17.7606
22.1075
61.8077
30.9183
10.288
10.1757
9.9794
9.91374
9.84128
30.9183
10.2883
10.175
9.97915
9.91443
9.84554
9.80791
9.7835
30.9183
10.2887
10.1751
9.98059
9.91292
9.84207
9.79968
9.77673
9.7693
9.76258
9.75817
9.7568
9.75596
9.75548
9.75512
30.9184
10.2896
10.1722
9.97784
9.91062
9.8512
9.81853
9.78439
9.77085
9.76269
9.75785
9.75674
9.75508
9.75521
9.75501
9.75524
30.9184
10.2908
10.1701
9.9758
9.90438
9.84124
9.80016
9.77872
9.76958
9.76262
9.75802
9.75705
9.75649
9.75526
9.75512
9.7549
9.75574
30.9184
10.2918
10.1677
9.97425
9.902
9.84367
9.80715
9.78647
9.77367
9.76362
9.75905
9.75979
9.7552
9.75638
9.75495
9.75642
9.75539
9.75806
30.9184
10.2935
10.1654
9.97251
9.89759
9.83866
9.79973
9.78131
9.7676
9.76253
9.75922
9.76136
9.75796
9.75519
9.75475
9.75517
9.75936
9.75805
9.76006
9.76177
9.76532
30.9184
10.2948
10.1635
9.97232
9.89588
9.8391
9.80038
9.78365
9.76838
9.76206
9.75936
9.7602
9.75735
9.7551
9.75466
9.75477
9.75605
9.75565
9.75806
9.7626
9.76721
9.77324
9.7873
9.80069
9.84696
9.88555
10.0001
10.178
10.3198
19.2065
30.9185
10.2966
10.1615
9.97178
9.89328
9.83694
9.79862
9.78297
9.76867
9.76468
9.76159
9.75874
9.75543
9.75627
9.7549
9.75493
9.75815
9.75596
9.75905
9.76388
9.7682
9.77353
9.78932
9.80236
9.84873
9.88571
10.0014
10.1766
10.3199
19.2079
30.9186
10.2982
10.16
9.9726
9.89232
9.8372
9.79857
9.78344
9.76853
9.76394
9.76077
9.75737
9.75619
9.75559
9.75639
9.75506
9.7554
9.75651
9.75722
9.76028
9.76657
9.77228
9.78843
9.80141
9.8478
9.88458
10.0019
10.1752
10.3202
19.2095
30.9188
10.3001
10.1586
9.97366
9.89137
9.83701
9.79831
9.78342
9.7684
9.76455
9.7616
9.75816
9.75677
9.75536
9.75507
9.75486
9.75743
9.75606
9.75707
9.76129
9.76786
9.77309
9.79018
9.80265
9.84932
9.88463
10.0035
10.1735
10.3204
19.2109
30.919
10.3019
10.1574
9.97563
9.89139
9.83793
9.79916
9.78416
9.76938
9.76541
9.76202
9.75895
9.75553
9.75565
9.75479
9.75562
9.75515
9.75699
9.75637
9.75937
9.76575
9.77162
9.78902
9.80212
9.84932
9.88424
10.0052
10.1719
10.3208
19.2123
30.9193
10.3041
10.1564
9.9784
9.89193
9.83926
9.79913
9.78307
9.76738
9.76221
9.76032
9.76112
9.75895
9.75528
9.75472
9.75521
9.75862
9.7571
9.75858
9.7636
9.7691
9.77357
9.79072
9.80328
9.85101
9.88473
10.0077
10.17
10.321
19.2134
30.9196
10.3067
10.1553
9.98144
9.89315
9.84116
9.80152
9.7844
9.7698
9.76338
9.75963
9.75839
9.75704
9.75544
9.75492
9.75485
9.75567
9.75608
9.75717
9.76104
9.76519
9.77169
9.7885
9.80271
9.85159
9.88518
10.0107
10.1681
10.3216
19.2143
30.9201
10.3103
10.1548
9.98634
9.89549
9.84474
9.80181
9.7832
9.76763
9.76092
9.75948
9.7588
9.75777
9.75642
9.75481
9.75519
9.75888
9.75787
9.75897
9.76215
9.76706
9.77395
9.78984
9.80415
9.85365
9.88676
10.0143
10.166
10.3224
19.2147
30.9206
10.3149
10.1541
9.99074
9.8981
9.84728
9.8073
9.78666
9.77263
9.76248
9.75919
9.75847
9.75598
9.75611
9.75644
9.75607
9.75578
9.75846
9.75694
9.75916
9.76222
9.77038
9.78632
9.80357
9.8558
9.88841
10.0192
10.1643
10.3241
19.2144
30.9214
10.3222
10.1548
9.99786
9.90153
9.85037
9.80413
9.78022
9.76959
9.76192
9.75829
9.7573
9.75561
9.75543
9.75503
9.75513
9.75628
9.7557
9.75643
9.75921
9.76342
9.77473
9.78791
9.80528
9.85713
9.89029
10.024
10.1626
10.3276
19.2128
30.9225
10.3324
10.1559
10.0054
9.90589
9.85362
9.81472
9.78107
9.76966
9.76102
9.75818
9.75645
9.75587
9.75616
9.75541
9.75515
9.75562
9.75572
9.75613
9.75837
9.76209
9.77135
9.78186
9.80533
9.85962
9.89416
10.0314
10.1631
10.3322
19.2086
30.924
10.3517
10.1594
10.0131
9.90988
9.85056
9.80614
9.7777
9.76875
9.76103
9.75788
9.75621
9.75567
9.75541
9.75533
9.75533
9.75597
9.75579
9.75579
9.75873
9.76125
9.7727
9.78047
9.8054
9.85774
9.89576
10.0372
10.1637
10.3438
19.1996
30.9262
10.3836
10.1691
10.0274
9.91782
9.84713
9.8071
9.77431
9.76921
9.75951
9.75815
9.75686
9.75592
9.75553
9.75552
9.75519
9.75542
9.75564
9.75564
9.75824
9.76012
9.77413
9.78033
9.80947
9.85602
9.90304
10.0456
10.1745
10.3648
19.1775
30.9296
10.4428
10.1829
10.0324
9.93
9.84023
9.8093
9.77279
9.76959
9.7587
9.75827
9.75559
9.75558
9.75528
9.75512
9.75547
9.7553
9.75569
9.75575
9.758
9.75892
9.7709
9.77551
9.81224
9.84947
9.9149
10.0497
10.1891
10.4146
19.1469
30.9354
10.5783
10.2531
10.0483
9.94621
9.82754
9.8103
9.76819
9.7686
9.75741
9.7576
9.75557
9.75554
9.75505
9.75514
9.75507
9.75515
9.75528
9.75552
9.758
9.75762
9.77094
9.77161
9.81375
9.83683
9.9361
10.0581
10.2699
10.5196
19.0867
30.9411
10.8476
10.371
10.0255
9.99861
9.81792
9.82139
9.76552
9.76967
9.75701
9.75766
9.7553
9.75535
9.75513
9.75505
9.75521
9.755
9.75552
9.75523
9.75763
9.75663
9.77077
9.76734
9.82339
9.82456
9.98365
10.0405
10.3858
10.7267
19.0179
30.952
11.9231
11.001
10.046
10.0225
9.79447
9.81249
9.76076
9.7671
9.75619
9.75735
9.7555
9.75567
9.75527
9.75535
9.75526
9.75531
9.75543
9.75548
9.75746
9.75596
9.76801
9.76079
9.81653
9.79501
10.0327
10.0223
11.0544
11.2739
18.8561
30.8956
15.189
12.3272
10.6417
10.2854
9.98555
9.87917
9.87586
9.84106
9.85409
9.84478
9.84746
9.84481
9.84506
9.84366
9.84375
9.84196
9.84276
9.83899
9.84303
9.8319
9.85043
9.81521
9.92863
9.83328
10.4081
10.1022
12.7201
10.9308
20.8483
30.0922
37.0996
28.422
21.1512
15.9141
16.5084
15.9009
15.8774
15.8941
15.9056
15.9087
15.9176
15.9191
15.9231
15.9232
15.9241
15.9213
15.9205
15.9115
15.9126
15.8886
15.9
15.8471
15.8694
15.7901
16.5108
15.7048
20.2117
23.594
61.014
30.9182
10.2507
10.1358
9.96868
9.92013
9.85265
9.81043
9.78502
30.9182
10.2513
10.1373
9.96876
9.92324
9.84733
9.8117
9.79066
30.9182
10.2514
10.1318
9.9646
9.90319
9.84238
9.80591
9.78188
30.9181
10.2525
10.1295
9.9599
9.89381
9.83383
9.8109
9.79172
30.9181
10.2528
10.1262
9.95831
9.88855
9.83084
9.79904
9.77869
30.918
10.2538
10.124
9.95567
9.88096
9.82517
9.79916
9.78449
9.77441
9.76835
9.76334
9.77256
9.7605
9.76002
9.75531
9.75959
9.75634
30.9181
10.2544
10.1218
9.95554
9.87916
9.82457
9.79484
9.77955
9.766
9.76601
9.76372
9.77317
9.76202
9.75691
9.75464
9.75462
9.7556
9.76654
9.76885
9.76078
9.76453
9.76821
9.77996
9.79308
9.82534
9.87721
9.96119
10.1514
10.272
19.152
30.9181
10.2553
10.1201
9.95486
9.8752
9.82184
9.79297
9.77974
9.76696
9.76437
9.75694
9.76421
9.78077
9.75639
9.75512
9.75658
9.75957
9.78001
9.77398
9.76273
9.76741
9.77048
9.78151
9.79323
9.82556
9.87655
9.96166
10.1499
10.2721
19.1535
30.9182
10.2562
10.1185
9.95575
9.87448
9.82255
9.79314
9.78012
9.76681
9.76375
9.75793
9.75694
9.75978
9.77334
9.75668
9.7677
9.76151
9.7558
9.7583
9.76147
9.76374
9.76786
9.77973
9.79218
9.82487
9.87533
9.96233
10.1486
10.2724
19.1551
30.9183
10.2573
10.1172
9.95663
9.8732
9.82237
9.79287
9.78091
9.76723
9.76431
9.75649
9.75921
9.75656
9.75623
9.75873
9.75575
9.75466
9.76364
9.76042
9.76209
9.76566
9.76913
9.78193
9.79323
9.82589
9.87483
9.96343
10.1469
10.2726
19.1565
30.9185
10.2585
10.1157
9.95826
9.87302
9.82328
9.79328
9.78026
9.76722
9.76237
9.76049
9.76756
9.77936
9.75694
9.75527
9.75709
9.76526
9.76218
9.76208
9.76194
9.76627
9.76911
9.78144
9.79299
9.8259
9.87427
9.965
10.1454
10.273
19.1579
30.9187
10.2601
10.1148
9.96072
9.87383
9.82545
9.79568
9.78386
9.76971
9.76614
9.76641
9.77638
9.7595
9.76052
9.75452
9.75859
9.75588
9.78566
9.77501
9.76178
9.76662
9.76957
9.78339
9.79466
9.82774
9.87436
9.967
10.1435
10.2734
19.1592
30.919
10.262
10.1133
9.96349
9.87455
9.82804
9.79618
9.78254
9.76853
9.76532
9.76304
9.7694
9.75835
9.75688
9.75492
9.75445
9.75735
9.76534
9.76616
9.76058
9.76569
9.77015
9.78201
9.79449
9.82795
9.87424
9.96939
10.1418
10.2742
19.1601
30.9194
10.2648
10.1127
9.96718
9.87674
9.82983
9.80053
9.78681
9.77267
9.76716
9.76475
9.77515
9.76512
9.75729
9.75463
9.75519
9.7579
9.7866
9.77122
9.76125
9.76279
9.76997
9.78386
9.79757
9.83177
9.87565
9.97257
10.1395
10.2753
19.1604
30.9199
10.2687
10.111
9.97214
9.88001
9.83686
9.80034
9.782
9.76842
9.76549
9.75654
9.75617
9.76384
9.77492
9.76112
9.75662
9.76657
9.75902
9.75922
9.76263
9.76571
9.77299
9.78355
9.79832
9.83176
9.87666
9.97604
10.1378
10.2769
19.1593
30.9206
10.2747
10.1114
9.97728
9.88236
9.83373
9.80735
9.78994
9.77388
9.76193
9.75653
9.75546
9.75476
9.75497
9.75692
9.75736
9.75532
9.75659
9.75728
9.75818
9.7644
9.77247
9.78466
9.80197
9.83718
9.87923
9.98069
10.1352
10.2791
19.156
30.9216
10.2834
10.1119
9.9869
9.89333
9.84882
9.80952
9.78089
9.76783
9.76134
9.75703
9.75511
9.75728
9.75529
9.75945
9.75488
9.75708
9.75492
9.75559
9.75862
9.76258
9.77488
9.78883
9.80832
9.83514
9.88205
9.98568
10.1345
10.2822
19.1457
30.9232
10.2961
10.1131
9.99346
9.89183
9.83035
9.81178
9.78667
9.77128
9.7603
9.75715
9.7566
9.75566
9.75602
9.75584
9.75833
9.7558
9.75702
9.75548
9.75775
9.76161
9.77421
9.78967
9.81015
9.83558
9.88542
9.99115
10.1331
10.2885
19.1324
30.9255
10.3174
10.1232
10.01
9.91949
9.84253
9.81138
9.7801
9.76966
9.75935
9.75836
9.75567
9.75651
9.75501
9.75603
9.75536
9.75819
9.75558
9.75667
9.75748
9.76087
9.77216
9.78516
9.81378
9.82988
9.89175
10.0021
10.1408
10.2989
19.1048
30.929
10.3762
10.1336
10.0127
9.92691
9.83508
9.81263
9.77535
9.76703
9.75806
9.75752
9.75711
9.75559
9.7548
9.75488
9.75477
9.75487
9.75576
9.75469
9.75772
9.75845
9.77215
9.77727
9.81762
9.82581
9.90277
10.006
10.152
10.3387
19.0719
30.9349
10.5191
10.2038
10.0322
9.95438
9.82481
9.81121
9.76877
9.76777
9.75814
9.75661
9.75491
9.75475
9.75458
9.75441
9.75431
9.7546
9.75491
9.75478
9.75724
9.75726
9.77002
9.77196
9.81775
9.81439
9.92472
10.0199
10.2362
10.451
19.0102
30.9433
10.7932
10.3166
10.0059
9.99419
9.80493
9.82539
9.76508
9.76812
9.75553
9.75704
9.75468
9.75468
9.75431
9.75434
9.75424
9.75426
9.75427
9.75441
9.75737
9.75771
9.77116
9.76654
9.83404
9.80985
9.97286
10.0009
10.3426
10.6637
18.9466
30.9543
11.9011
10.9711
10.0409
10.0265
9.79057
9.81626
9.75927
9.76674
9.75528
9.75671
9.75461
9.75469
9.75448
9.7545
9.75441
9.75455
9.75475
9.75468
9.75641
9.75501
9.76854
9.7593
9.82172
9.7871
10.0373
10.0012
11.0501
11.2272
18.8225
30.897
15.1816
12.3138
10.66
10.298
9.98959
9.88066
9.87387
9.83627
9.85073
9.84067
9.8437
9.84102
9.84137
9.83981
9.84026
9.83803
9.83939
9.83523
9.83958
9.82843
9.84786
9.81047
9.93694
9.82862
10.4264
10.0866
12.7226
10.8867
20.6986
30.0927
37.2688
28.8225
21.5613
16.0496
16.6838
15.941
15.9033
15.922
15.9321
15.9361
15.9454
15.9472
15.9516
15.9517
15.953
15.9502
15.9497
15.9413
15.9424
15.9191
15.9316
15.8782
15.9025
15.8526
16.7448
15.8389
20.7402
23.9477
60.991
30.9161
10.2389
10.0481
9.94605
9.91164
30.9161
10.2395
10.0413
9.92812
9.88949
30.9159
10.2414
10.0431
9.93155
9.87753
30.9159
10.242
10.0386
9.92273
9.86559
9.83665
9.82333
9.81769
30.9158
10.244
10.0393
9.92466
9.86287
9.82269
9.79373
9.7764
30.9159
10.2449
10.0368
9.92225
9.85792
9.82281
9.79956
9.79043
9.77112
9.84301
9.78883
9.79522
9.78049
9.77568
9.78147
9.78832
9.81826
9.85432
9.92838
10.053
10.2534
19.1411
30.9159
10.2468
10.0361
9.92209
9.85436
9.81484
9.78914
9.77595
9.76688
9.90148
9.81271
9.81598
9.78423
9.77358
9.78401
9.79207
9.82117
9.85512
9.92919
10.0516
10.2538
19.1424
30.916
10.2482
10.0347
9.92234
9.85263
9.81532
9.78982
9.77855
9.76682
9.76707
9.78194
9.76891
9.78129
9.77251
9.76384
9.77207
9.7733
9.78398
9.79125
9.81988
9.85386
9.92972
10.0507
10.2544
19.1436
30.9161
10.2502
10.0336
9.92306
9.85132
9.81375
9.788
9.77596
9.76579
9.77027
9.79194
9.77503
9.77554
9.76159
9.76916
9.77717
9.77384
9.78611
9.79231
9.82078
9.85334
9.93057
10.0491
10.255
19.1445
30.9163
10.2523
10.0324
9.92439
9.85082
9.81483
9.78985
9.77791
9.76849
9.77464
9.77354
9.86952
9.84263
9.77936
9.76196
9.77085
9.77125
9.78503
9.79232
9.82153
9.85327
9.93234
10.048
10.2558
19.1454
30.9166
10.2549
10.0315
9.9272
9.85215
9.81814
9.79101
9.7772
9.76807
9.77394
9.83007
9.91787
9.92284
9.81146
9.79947
9.79344
9.77464
9.7854
9.79187
9.82103
9.85233
9.93328
10.046
10.2566
19.1455
30.917
10.2582
10.0297
9.92874
9.85187
9.81978
9.7986
9.7843
9.77875
9.77945
9.79583
9.84164
9.83378
9.77591
9.78336
9.77172
9.76996
9.78199
9.79259
9.8245
9.85377
9.93681
10.0449
10.2577
19.1455
30.9175
10.2619
10.0296
9.93583
9.85858
9.83171
9.79915
9.78145
9.77467
9.79466
9.83893
9.90201
9.91883
9.82355
9.78061
9.78422
9.78318
9.78817
9.79706
9.8246
9.85402
9.93829
10.0426
10.2591
19.1437
30.9181
10.2673
10.0264
9.93505
9.85501
9.83034
9.82338
9.81848
9.81795
9.76812
9.77615
9.80085
9.79259
9.86106
9.85882
9.78601
9.76582
9.77279
9.77315
9.78221
9.79708
9.8356
9.85958
9.94578
10.0421
10.261
19.1411
30.919
10.2738
10.0295
9.95073
9.87347
9.85239
9.80696
9.7812
9.79232
9.77547
9.76271
9.75983
9.75981
9.78527
9.76101
9.7579
9.79528
9.76243
9.75587
9.76164
9.77182
9.81545
9.79989
9.80439
9.83069
9.85825
9.94783
10.0398
10.2637
19.1356
30.9202
10.2831
10.0255
9.94989
9.86313
9.86756
9.91337
9.78684
9.77359
9.76236
9.75992
9.75567
9.75871
9.77497
9.75666
9.77319
9.75862
9.75829
9.75628
9.76032
9.77447
9.78446
9.78305
9.80264
9.85173
9.87351
9.9599
10.0417
10.2673
19.1258
30.9218
10.296
10.0339
9.96882
9.89986
9.86282
9.80693
9.77457
9.77868
9.77054
9.75965
9.75793
9.77405
9.76062
9.75886
9.75751
9.7932
9.75827
9.75481
9.76181
9.77069
9.79505
9.78178
9.79483
9.84688
9.87058
9.96826
10.0414
10.2739
19.1133
30.9242
10.3158
10.0411
9.99121
9.90851
9.85978
9.80478
9.77337
9.78104
9.76032
9.76116
9.78034
9.7644
9.75841
9.75702
9.7553
9.76089
9.78754
9.75712
9.75756
9.76166
9.81829
9.79315
9.80736
9.85076
9.88992
9.97598
10.0517
10.2834
19.0844
30.9277
10.3492
10.0543
9.99252
9.92489
9.84139
9.80744
9.771
9.77728
9.75893
9.76078
9.75535
9.757
9.75698
9.75576
9.75657
9.7559
9.7557
9.76136
9.75889
9.76226