/*--------------------------------*- C++ -*----------------------------------*\
  =========                 |
  \\      /  F ield         | OpenFOAM: The Open Source CFD Toolbox
   \\    /   O peration     | Website:  https://openfoam.org
    \\  /    A nd           | Version:  10
     \\/     M anipulation  |
\*---------------------------------------------------------------------------*/
FoamFile
{
    format      ascii;
    class       volScalarField;
    location    "0.05";
    object      p;
}
// * * * * * * * * * * * * * * * * * * * * * * * * * * * * * * * * * * * * * //

dimensions      [0 2 -2 0 0 0 0];

internalField   nonuniform List<scalar> 
116800
(
108.04
106.9
109.001
108.512
109.297
108.035
106.896
108.992
108.506
109.288
109.116
108.029
106.891
108.983
108.501
109.277
109.113
109.55
109.458
108.023
106.885
108.977
108.493
109.272
109.105
109.545
109.45
109.766
109.669
109.872
109.793
110
109.898
110.031
108.016
106.878
108.968
108.487
109.262
109.101
109.534
109.445
109.764
109.671
109.862
109.793
109.984
109.891
110.024
109.928
108.009
106.87
108.962
108.478
109.262
109.092
109.536
109.433
109.761
109.661
109.857
109.788
109.966
109.883
110.011
109.912
110.003
108.001
106.862
108.954
108.471
109.254
109.087
109.528
109.425
109.755
109.659
109.851
109.782
109.947
109.874
109.982
109.903
109.968
109.857
107.993
106.853
108.948
108.46
109.254
109.078
109.529
109.411
109.75
109.645
109.847
109.775
109.931
109.857
109.938
109.881
109.939
109.848
109.955
109.762
109.887
107.984
106.844
108.939
108.453
109.247
109.073
109.523
109.401
109.74
109.649
109.859
109.766
109.91
109.834
109.905
109.855
109.917
109.833
109.933
109.758
109.898
109.611
109.765
109.463
109.672
109.293
109.437
109.265
108.67
108.783
107.975
106.835
108.931
108.442
109.244
109.065
109.52
109.388
109.733
109.642
109.861
109.751
109.876
109.809
109.877
109.832
109.896
109.815
109.908
109.752
109.898
109.611
109.768
109.467
109.68
109.296
109.445
109.271
108.678
108.789
107.966
106.827
108.922
108.434
109.239
109.059
109.511
109.378
109.722
109.636
109.846
109.732
109.841
109.784
109.851
109.811
109.876
109.797
109.896
109.744
109.9
109.612
109.774
109.471
109.69
109.297
109.454
109.276
108.686
108.795
107.956
106.818
108.912
108.423
109.234
109.048
109.503
109.365
109.707
109.621
109.826
109.71
109.814
109.761
109.827
109.792
109.855
109.787
109.884
109.744
109.899
109.637
109.78
109.48
109.698
109.301
109.462
109.282
108.694
108.8
107.944
106.809
108.9
108.413
109.22
109.039
109.493
109.354
109.678
109.595
109.799
109.689
109.79
109.741
109.805
109.775
109.839
109.774
109.877
109.74
109.902
109.656
109.792
109.489
109.709
109.303
109.473
109.287
108.703
108.805
107.93
106.799
108.887
108.401
109.208
109.03
109.485
109.345
109.653
109.57
109.771
109.67
109.768
109.725
109.785
109.763
109.821
109.767
109.865
109.74
109.891
109.69
109.797
109.504
109.716
109.31
109.486
109.293
108.712
108.809
107.912
106.788
108.871
108.39
109.192
109.023
109.474
109.343
109.623
109.546
109.736
109.651
109.747
109.71
109.768
109.75
109.808
109.757
109.856
109.735
109.894
109.709
109.811
109.516
109.727
109.339
109.492
109.298
108.721
108.813
107.892
106.775
108.854
108.376
109.178
109.01
109.467
109.35
109.604
109.527
109.712
109.634
109.729
109.697
109.752
109.74
109.792
109.751
109.843
109.738
109.889
109.72
109.828
109.534
109.734
109.354
109.496
109.302
108.73
108.816
107.87
106.762
108.833
108.364
109.162
108.997
109.448
109.355
109.622
109.526
109.692
109.622
109.712
109.687
109.738
109.729
109.78
109.743
109.834
109.734
109.886
109.716
109.844
109.546
109.739
109.378
109.499
109.305
108.74
108.817
107.844
106.745
108.811
108.348
109.149
108.982
109.43
109.341
109.618
109.519
109.677
109.609
109.698
109.675
109.725
109.72
109.767
109.737
109.82
109.734
109.873
109.689
109.837
109.558
109.734
109.376
109.501
109.303
108.749
108.815
107.812
106.725
108.78
108.332
109.126
108.977
109.402
109.334
109.594
109.51
109.66
109.601
109.683
109.666
109.713
109.709
109.756
109.729
109.809
109.728
109.862
109.683
109.837
109.572
109.727
109.379
109.506
109.3
108.761
108.811
107.765
106.693
108.745
108.31
109.108
108.973
109.384
109.34
109.583
109.501
109.644
109.589
109.669
109.654
109.7
109.698
109.741
109.72
109.793
109.723
109.845
109.689
109.842
109.586
109.711
109.378
109.509
109.29
108.776
108.803
107.692
106.648
108.692
108.292
109.08
108.983
109.359
109.358
109.572
109.498
109.626
109.581
109.654
109.644
109.686
109.687
109.728
109.71
109.778
109.715
109.829
109.689
109.828
109.583
109.682
109.384
109.507
109.283
108.798
108.791
107.563
106.56
108.625
108.257
109.053
108.986
109.373
109.33
109.559
109.486
109.607
109.567
109.636
109.628
109.67
109.672
109.71
109.696
109.757
109.702
109.805
109.678
109.798
109.565
109.666
109.376
109.503
109.268
108.836
108.774
107.343
106.424
108.51
108.244
109.014
109.005
109.373
109.353
109.541
109.483
109.588
109.561
109.621
109.62
109.657
109.662
109.696
109.687
109.74
109.695
109.781
109.675
109.773
109.569
109.64
109.379
109.481
109.257
108.888
108.722
106.939
106.138
108.366
108.213
108.988
109.011
109.367
109.345
109.524
109.48
109.576
109.556
109.612
109.614
109.649
109.656
109.688
109.682
109.727
109.689
109.761
109.667
109.756
109.593
109.627
109.365
109.445
109.265
108.977
108.533
106.246
105.798
108.189
108.337
109.045
109.122
109.401
109.412
109.546
109.53
109.605
109.601
109.647
109.656
109.686
109.698
109.723
109.724
109.757
109.733
109.779
109.714
109.761
109.631
109.628
109.41
109.418
109.25
109.022
107.987
104.955
105.469
108.28
108.549
109.231
109.283
109.529
109.533
109.656
109.652
109.72
109.727
109.769
109.783
109.811
109.824
109.847
109.85
109.876
109.856
109.891
109.832
109.865
109.738
109.733
109.542
109.578
109.48
109.343
106.966
100.559
106.03
109.249
109.306
109.636
109.673
109.832
109.872
109.959
109.986
110.038
110.061
110.097
110.118
110.144
110.16
110.179
110.187
110.201
110.195
110.204
110.17
110.161
110.07
110.031
109.928
110.072
110.3
110.455
103.24
107.766
106.052
108.865
106.468
109.066
107.762
106.049
108.862
106.46
109.073
107.04
107.757
106.054
108.829
106.488
109.014
107.085
108.968
107.569
107.75
106.041
108.835
106.459
109.042
107.04
109.008
107.523
108.882
107.742
108.827
107.979
108.704
108.13
108.643
107.744
106.043
108.8
106.484
108.981
107.082
108.945
107.565
108.848
107.783
108.789
108.007
108.677
108.159
108.616
108.204
107.735
106.023
108.813
106.439
109.021
107.019
109.019
107.481
108.883
107.742
108.805
107.996
108.679
108.162
108.622
108.205
108.685
107.727
106.02
108.782
106.456
108.971
107.049
108.972
107.505
108.864
107.756
108.787
108.004
108.67
108.174
108.609
108.222
108.672
108.118
107.718
105.999
108.792
106.41
109.009
106.982
109.04
107.426
108.906
107.706
108.81
107.993
108.669
108.185
108.605
108.234
108.674
108.122
108.853
107.922
109.081
107.709
105.993
108.768
106.418
108.972
107.002
109.013
107.433
108.887
107.712
108.798
107.998
108.658
108.191
108.597
108.238
108.677
108.123
108.866
107.902
109.11
107.72
109.24
107.386
109.376
107.059
109.459
106.779
109.659
108.127
107.7
105.975
108.769
106.386
108.989
106.96
109.048
107.386
108.924
107.676
108.822
107.987
108.661
108.194
108.595
108.255
108.673
108.144
108.862
107.916
109.111
107.719
109.25
107.394
109.387
107.066
109.466
106.79
109.665
108.133
107.691
105.968
108.748
106.389
108.961
106.972
109.022
107.399
108.914
107.685
108.806
107.995
108.643
108.199
108.587
108.255
108.681
108.135
108.887
107.893
109.146
107.684
109.285
107.371
109.418
107.052
109.485
106.791
109.673
108.139
107.681
105.957
108.737
106.374
108.96
106.951
109.035
107.378
108.945
107.672
108.811
107.993
108.641
108.211
108.576
108.272
108.659
108.168
108.862
107.933
109.118
107.687
109.267
107.399
109.415
107.071
109.486
106.808
109.676
108.145
107.67
105.951
108.714
106.379
108.93
106.966
109.007
107.4
108.95
107.689
108.788
107.999
108.625
108.216
108.569
108.278
108.668
108.161
108.887
107.911
109.154
107.648
109.297
107.381
109.44
107.066
109.498
106.819
109.682
108.151
107.657
105.946
108.697
106.372
108.921
106.956
109.011
107.393
108.967
107.689
108.778
108.011
108.61
108.235
108.55
108.305
108.639
108.202
108.849
107.971
109.104
107.688
109.254
107.431
109.422
107.1
109.48
106.856
109.683
108.157
107.638
105.948
108.664
106.386
108.88
106.983
108.966
107.437
108.935
107.722
108.741
108.028
108.586
108.245
108.541
108.307
108.642
108.198
108.866
107.956
109.135
107.658
109.278
107.424
109.438
107.111
109.472
106.892
109.682
108.164
107.617
105.94
108.643
106.381
108.878
106.968
108.977
107.425
108.939
107.716
108.732
108.036
108.575
108.257
108.524
108.33
108.611
108.239
108.819
108.025
109.074
107.733
109.229
107.491
109.411
107.16
109.446
106.937
109.675
108.17
107.596
105.938
108.594
106.407
108.848
106.982
108.911
107.473
108.862
107.761
108.687
108.066
108.549
108.274
108.512
108.334
108.61
108.241
108.825
108.026
109.092
107.735
109.246
107.507
109.418
107.193
109.411
107.006
109.67
108.176
107.568
105.926
108.572
106.402
108.878
106.948
108.919
107.454
108.859
107.754
108.682
108.063
108.547
108.269
108.505
108.346
108.584
108.276
108.778
108.088
109.034
107.82
109.2
107.579
109.384
107.251
109.395
107.041
109.657
108.179
107.541
105.92
108.499
106.452
108.792
107.028
108.835
107.493
108.791
107.811
108.639
108.105
108.522
108.294
108.497
108.352
108.585
108.282
108.778
108.106
109.035
107.855
109.201
107.637
109.369
107.332
109.382
107.108
109.64
108.181
107.498
105.868
108.467
106.449
108.789
107.044
108.829
107.458
108.78
107.813
108.633
108.098
108.524
108.282
108.493
108.357
108.563
108.307
108.737
108.149
108.985
107.909
109.175
107.698
109.335
107.384
109.364
107.151
109.624
108.18
107.434
105.863
108.37
106.566
108.701
107.181
108.739
107.541
108.718
107.889
108.599
108.155
108.504
108.321
108.489
108.376
108.567
108.328
108.732
108.192
108.966
107.994
109.186
107.83
109.269
107.554
109.298
107.315
109.574
108.183
107.308
105.743
108.336
106.545
108.708
107.181
108.734
107.556
108.703
107.901
108.582
108.146
108.498
108.301
108.48
108.367
108.542
108.337
108.691
108.211
108.915
108.02
109.164
107.858
109.25
107.603
109.277
107.408
109.553
108.184
107.104
105.793
108.25
106.828
108.625
107.443
108.687
107.747
108.652
108.016
108.557
108.223
108.489
108.356
108.484
108.408
108.549
108.384
108.682
108.292
108.866
108.154
109.059
108.045
109.116
107.895
109.109
107.734
109.386
108.159
106.674
105.573
108.282
106.712
108.634
107.388
108.709
107.743
108.615
108.02
108.516
108.211
108.461
108.329
108.461
108.385
108.516
108.372
108.633
108.287
108.809
108.141
109.007
107.984
109.093
107.931
109.088
108.021
109.389
107.996
105.883
105.818
108.283
107.507
108.538
107.904
108.572
108.065
108.532
108.198
108.488
108.315
108.465
108.4
108.477
108.445
108.527
108.452
108.615
108.421
108.726
108.363
108.83
108.314
108.878
108.307
108.752
108.334
108.58
107.396
104.175
105.254
108.247
107.109
108.603
107.731
108.565
107.983
108.486
108.161
108.433
108.283
108.417
108.362
108.434
108.407
108.482
108.416
108.562
108.386
108.678
108.325
108.807
108.251
108.872
108.306
108.722
108.916
108.778
106.468
99.7966
104.257
109.811
109.226
109.647
109.453
109.724
109.692
109.817
109.805
109.881
109.886
109.933
109.946
109.976
109.988
110.012
110.011
110.037
110.013
110.047
109.983
110.01
109.879
109.89
109.777
109.921
110.183
110.376
103.108
108.085
108.082
108.647
108.126
108.081
108.084
108.615
108.148
108.758
107.978
108.076
108.08
108.613
108.135
108.765
107.95
108.798
107.932
108.069
108.074
108.587
108.149
108.721
107.988
108.751
107.973
108.772
108.011
108.782
108.083
108.733
108.172
108.696
108.061
108.062
108.592
108.117
108.747
107.922
108.795
107.9
108.795
107.981
108.778
108.077
108.737
108.152
108.728
108.173
108.052
108.051
108.578
108.12
108.72
107.947
108.78
107.922
108.79
107.984
108.786
108.084
108.716
108.195
108.665
108.252
108.705
108.043
108.035
108.579
108.085
108.742
107.881
108.824
107.848
108.818
107.941
108.783
108.069
108.705
108.176
108.682
108.211
108.76
108.148
108.033
108.018
108.579
108.071
108.739
107.88
108.83
107.84
108.834
107.925
108.804
108.061
108.699
108.201
108.641
108.276
108.686
108.225
108.828
108.123
108.98
108.023
108.003
108.571
108.046
108.746
107.833
108.868
107.776
108.867
107.879
108.818
108.041
108.705
108.182
108.661
108.233
108.745
108.152
108.923
108.033
109.088
107.973
109.213
107.999
109.254
108.21
109.291
108.427
109.295
108.468
108.013
107.984
108.576
108.024
108.759
107.813
108.891
107.746
108.887
107.846
108.839
108.014
108.718
108.19
108.634
108.277
108.68
108.224
108.854
108.099
109.039
108.027
109.187
108.03
109.241
108.232
109.291
108.443
109.302
108.474
108.002
107.971
108.563
108.009
108.753
107.79
108.909
107.709
108.908
107.817
108.853
107.998
108.728
108.175
108.653
108.239
108.742
108.148
108.942
108.008
109.14
107.942
109.276
107.961
109.299
108.196
109.321
108.435
109.315
108.48
107.991
107.954
108.563
107.987
108.769
107.763
108.93
107.679
108.926
107.788
108.864
107.985
108.718
108.187
108.627
108.301
108.684
108.238
108.867
108.086
109.086
107.997
109.246
107.995
109.283
108.221
109.319
108.453
109.321
108.486
107.98
107.941
108.549
107.976
108.763
107.75
108.934
107.668
108.932
107.787
108.861
107.986
108.721
108.174
108.642
108.255
108.732
108.162
108.947
108.006
109.161
107.931
109.305
107.948
109.321
108.2
109.339
108.454
109.33
108.492
107.966
107.926
108.539
107.96
108.761
107.741
108.933
107.664
108.934
107.781
108.856
107.991
108.688
108.203
108.603
108.32
108.661
108.258
108.865
108.096
109.101
107.984
109.274
107.982
109.304
108.226
109.332
108.474
109.334
108.499
107.95
107.912
108.521
107.95
108.76
107.729
108.935
107.667
108.932
107.8
108.841
108.014
108.685
108.203
108.621
108.282
108.717
108.192
108.932
108.039
109.144
107.948
109.299
107.963
109.321
108.223
109.345
108.483
109.34
108.504
107.931
107.892
108.501
107.944
108.744
107.741
108.906
107.697
108.911
107.823
108.821
108.031
108.657
108.238
108.583
108.346
108.644
108.289
108.853
108.129
109.09
107.999
109.272
107.986
109.328
108.222
109.345
108.494
109.341
108.509
107.91
107.871
108.474
107.936
108.737
107.737
108.907
107.712
108.902
107.847
108.806
108.054
108.668
108.242
108.605
108.317
108.696
108.243
108.897
108.101
109.101
108.002
109.261
108.006
109.331
108.232
109.347
108.516
109.344
108.513
107.882
107.834
108.457
107.92
108.725
107.751
108.864
107.767
108.862
107.887
108.772
108.088
108.634
108.28
108.573
108.368
108.645
108.323
108.833
108.174
109.057
108.047
109.229
108.021
109.327
108.227
109.354
108.513
109.347
108.514
107.848
107.803
108.414
107.929
108.694
107.778
108.846
107.805
108.838
107.925
108.749
108.113
108.639
108.283
108.588
108.361
108.666
108.307
108.85
108.178
109.048
108.078
109.193
108.072
109.307
108.272
109.347
108.552
109.346
108.515
107.794
107.719
108.407
107.89
108.702
107.769
108.809
107.833
108.796
107.956
108.711
108.144
108.603
108.308
108.566
108.375
108.639
108.335
108.807
108.221
109.005
108.108
109.155
108.079
109.296
108.255
109.354
108.545
109.354
108.513
107.718
107.672
108.361
107.944
108.637
107.86
108.749
107.906
108.744
108.014
108.678
108.176
108.594
108.326
108.558
108.401
108.627
108.366
108.792
108.257
108.982
108.166
109.117
108.164
109.245
108.342
109.307
108.625
109.335
108.515
107.572
107.477
108.426
107.805
108.696
107.781
108.749
107.882
108.726
108.023
108.649
108.194
108.567
108.331
108.549
108.386
108.618
108.361
108.761
108.28
108.938
108.193
109.091
108.173
109.236
108.316
109.314
108.645
109.362
108.51
107.331
107.423
108.382
108.007
108.606
107.984
108.641
108.026
108.642
108.116
108.598
108.244
108.544
108.366
108.528
108.43
108.591
108.411
108.729
108.336
108.885
108.282
109.007
108.315
109.106
108.448
109.174
108.732
109.247
108.449
106.835
107.031
108.526
107.711
108.701
107.82
108.681
107.957
108.647
108.103
108.581
108.25
108.523
108.361
108.52
108.412
108.579
108.404
108.694
108.352
108.844
108.291
108.991
108.296
109.106
108.45
109.174
108.902
109.334
108.241
105.93
106.977
108.6
108.222
108.603
108.22
108.535
108.208
108.516
108.247
108.498
108.324
108.485
108.402
108.494
108.452
108.546
108.458
108.639
108.435
108.736
108.427
108.806
108.469
108.836
108.545
108.783
108.724
108.54
107.504
104.078
106.082
108.472
107.684
108.655
108.021
108.578
108.112
108.53
108.22
108.49
108.321
108.471
108.399
108.485
108.444
108.534
108.457
108.616
108.442
108.722
108.42
108.82
108.438
108.816
108.61
108.731
109.312
108.778
106.412
99.2777
104.041
110.028
109.346
109.705
109.473
109.716
109.687
109.8
109.78
109.857
109.855
109.905
109.915
109.948
109.958
109.985
109.983
110.014
109.988
110.028
109.968
109.999
109.887
109.869
109.783
109.91
110.195
110.304
102.912
108.012
107.264
109.497
106.747
109.784
106.743
108.008
107.285
109.402
106.839
109.613
106.898
109.512
107.223
108
107.254
109.468
106.75
109.743
106.768
109.639
107.097
109.325
107.487
109.054
107.776
108.876
107.959
108.828
107.994
107.276
109.358
106.85
109.551
106.927
109.445
107.271
109.193
107.595
108.967
107.852
108.811
108.043
108.739
108.101
107.983
107.234
109.438
106.738
109.708
106.764
109.617
107.083
109.297
107.496
109.005
107.823
108.813
108.033
108.764
108.073
108.866
107.975
107.249
109.341
106.823
109.538
106.897
109.464
107.202
109.24
107.552
108.976
107.846
108.812
108.057
108.731
108.133
108.821
107.984
107.962
107.206
109.411
106.711
109.687
106.726
109.636
107.022
109.367
107.421
109.031
107.811
108.813
108.066
108.753
108.109
108.874
107.94
109.128
107.648
109.479
107.953
107.211
109.346
106.767
109.579
106.813
109.526
107.106
109.309
107.48
109.002
107.833
108.796
108.081
108.732
108.132
108.858
107.952
109.138
107.608
109.533
107.242
109.883
106.989
110.1
106.983
110.101
107.431
109.597
108.557
107.941
107.178
109.384
106.688
109.672
106.69
109.657
106.959
109.425
107.35
109.093
107.78
108.833
108.067
108.753
108.133
108.889
107.946
109.171
107.593
109.571
107.231
109.908
106.992
110.116
106.993
110.1
107.453
109.602
108.564
107.93
107.175
109.343
106.716
109.606
106.743
109.586
107.01
109.373
107.39
109.056
107.805
108.789
108.091
108.72
108.147
108.882
107.946
109.21
107.548
109.643
107.157
109.991
106.918
110.189
106.941
110.142
107.436
109.618
108.57
107.918
107.152
109.349
106.674
109.655
106.667
109.663
106.924
109.442
107.33
109.1
107.793
108.811
108.101
108.729
108.169
108.861
107.971
109.174
107.609
109.598
107.225
109.95
106.976
110.157
106.986
110.127
107.466
109.619
108.577
107.906
107.145
109.314
106.692
109.599
106.715
109.596
106.974
109.377
107.366
109.056
107.806
108.78
108.109
108.702
108.187
108.87
107.97
109.222
107.55
109.687
107.136
110.047
106.896
110.227
106.942
110.16
107.46
109.631
108.582
107.892
107.125
109.317
106.657
109.64
106.653
109.658
106.914
109.42
107.352
109.055
107.837
108.768
108.152
108.677
108.219
108.821
108.017
109.141
107.65
109.573
107.272
109.94
107.01
110.151
107.018
110.125
107.504
109.626
108.589
107.877
107.118
109.273
106.685
109.569
106.714
109.546
107.006
109.305
107.427
108.976
107.867
108.706
108.171
108.638
108.234
108.808
108.021
109.169
107.615
109.652
107.193
110.032
106.937
110.214
106.984
110.147
107.512
109.633
108.593
107.858
107.092
109.265
106.664
109.628
106.647
109.633
106.935
109.35
107.406
108.967
107.882
108.706
108.191
108.625
108.263
108.766
108.08
109.07
107.746
109.491
107.371
109.886
107.087
110.119
107.071
110.097
107.565
109.621
108.599
107.838
107.085
109.21
106.701
109.521
106.742
109.466
107.079
109.197
107.528
108.872
107.943
108.633
108.231
108.563
108.291
108.731
108.098
109.069
107.747
109.532
107.336
109.943
107.045
110.158
107.063
110.099
107.599
109.62
108.601
107.81
107.042
109.241
106.646
109.599
106.681
109.563
107.009
109.229
107.49
108.893
107.911
108.667
108.186
108.585
108.282
108.69
108.142
108.974
107.865
109.372
107.493
109.803
107.185
110.071
107.133
110.064
107.63
109.609
108.604
107.774
107.027
109.166
106.705
109.471
106.796
109.385
107.173
109.083
107.617
108.798
108
108.591
108.251
108.539
108.308
108.67
108.162
108.964
107.885
109.374
107.528
109.793
107.228
110.042
107.211
110.039
107.701
109.588
108.606
107.717
106.945
109.199
106.64
109.533
106.768
109.455
107.127
109.127
107.58
108.833
107.948
108.637
108.197
108.56
108.297
108.643
108.199
108.894
107.955
109.271
107.616
109.699
107.303
109.987
107.237
110.027
107.699
109.578
108.614
107.638
106.931
109.097
106.772
109.39
106.94
109.287
107.306
109.003
107.713
108.751
108.062
108.572
108.286
108.528
108.338
108.639
108.231
108.878
108.014
109.231
107.72
109.613
107.478
109.848
107.459
109.894
107.88
109.517
108.613
107.483
106.747
109.155
106.633
109.436
106.881
109.316
107.276
109.025
107.69
108.766
108.011
108.603
108.221
108.54
108.311
108.608
108.247
108.827
108.031
109.173
107.729
109.561
107.464
109.834
107.438
109.895
107.899
109.528
108.602
107.236
106.762
109.033
107.006
109.255
107.251
109.131
107.546
108.902
107.865
108.695
108.147
108.549
108.33
108.516
108.386
108.605
108.32
108.796
108.17
109.07
107.961
109.358
107.795
109.542
107.808
109.592
108.187
109.324
108.537
106.698
106.347
109.121
106.673
109.256
107.099
109.099
107.501
108.854
107.854
108.651
108.111
108.537
108.271
108.507
108.341
108.571
108.298
108.746
108.14
109.021
107.91
109.331
107.725
109.538
107.791
109.576
108.378
109.4
108.288
105.759
106.49
109.036
107.659
109.002
107.827
108.822
107.961
108.68
108.115
108.571
108.27
108.502
108.387
108.496
108.435
108.559
108.427
108.68
108.372
108.837
108.275
108.986
108.203
109.066
108.216
108.967
108.438
108.425
107.465
103.816
105.17
108.739
106.803
108.906
107.513
108.774
107.83
108.618
108.075
108.511
108.241
108.462
108.344
108.466
108.395
108.521
108.386
108.634
108.313
108.803
108.206
108.988
108.101
109.026
108.21
108.864
108.966
108.809
106.376
99.0621
103.895
110.372
109.209
109.777
109.427
109.735
109.656
109.798
109.741
109.837
109.82
109.878
109.882
109.919
109.926
109.957
109.95
109.992
109.954
110.017
109.931
110.004
109.856
109.881
109.704
109.952
110.209
110.587
102.837
108.04
107.766
109.109
107.526
109.424
107.454
109.312
107.542
108.034
107.773
109.027
107.593
109.294
107.589
109.207
107.684
108.026
107.749
109.075
107.507
109.398
107.394
109.33
107.466
108.017
107.748
109.015
107.562
109.293
107.497
109.292
107.599
108.006
107.719
109.05
107.47
109.4
107.316
109.442
107.377
107.995
107.704
109.033
107.481
109.361
107.354
109.415
107.424
109.313
107.649
109.079
107.929
108.748
108.14
108.652
108.25
108.728
107.983
107.682
109.039
107.422
109.422
107.229
109.531
107.269
109.408
107.514
109.114
107.893
108.76
108.112
108.699
108.179
108.863
107.97
109.244
107.716
109.6
107.451
109.869
107.374
109.953
107.596
109.842
107.973
109.353
108.649
107.971
107.659
109.049
107.401
109.433
107.223
109.549
107.252
109.439
107.489
109.162
107.788
108.874
108.087
108.669
108.221
108.758
108.085
109.09
107.831
109.468
107.553
109.772
107.462
109.882
107.666
109.81
108.015
109.35
108.657
107.959
107.644
109.038
107.371
109.445
107.168
109.613
107.168
109.503
107.418
109.183
107.778
108.866
108.098
108.684
108.152
108.886
107.966
109.28
107.641
109.695
107.355
109.976
107.294
110.045
107.546
109.886
107.975
109.372
108.663
107.946
107.622
109.045
107.343
109.468
107.139
109.628
107.142
109.516
107.393
109.195
107.752
108.855
108.077
108.67
108.232
108.762
108.108
109.111
107.782
109.55
107.478
109.875
107.384
109.985
107.607
109.857
108.014
109.371
108.667
107.934
107.607
109.038
107.321
109.488
107.097
109.662
107.104
109.539
107.37
109.201
107.735
108.892
108.05
108.681
108.189
108.836
107.992
109.274
107.634
109.71
107.343
110.004
107.278
110.079
107.54
109.905
107.995
109.388
108.67
107.92
107.589
109.033
107.304
109.476
107.102
109.624
107.132
109.497
107.412
109.147
107.826
108.714
108.127
108.605
108.292
108.709
108.122
109.1
107.807
109.574
107.466
109.922
107.354
110.039
107.583
109.882
108.029
109.387
108.675
107.905
107.57
109.03
107.278
109.502
107.064
109.659
107.104
109.498
107.406
109.144
107.836
108.742
108.124
108.654
108.235
108.821
108.018
109.235
107.704
109.645
107.417
109.957
107.333
110.066
107.569
109.9
108.035
109.396
108.679
107.888
107.551
108.995
107.301
109.442
107.128
109.548
107.212
109.406
107.512
109.075
107.915
108.672
108.183
108.59
108.331
108.687
108.176
109.067
107.884
109.53
107.532
109.898
107.383
110.043
107.587
109.886
108.057
109.394
108.683
107.867
107.525
108.992
107.273
109.46
107.102
109.582
107.186
109.384
107.493
109.082
107.895
108.768
108.209
108.624
108.278
108.777
108.126
109.137
107.841
109.521
107.567
109.849
107.452
110.014
107.634
109.877
108.094
109.394
108.697
107.839
107.486
108.984
107.27
109.394
107.182
109.423
107.348
109.266
107.618
109.009
107.972
108.713
108.246
108.598
108.357
108.713
108.247
109.024
107.973
109.445
107.669
109.8
107.48
109.997
107.626
109.885
108.081
109.393
108.694
107.799
107.453
108.94
107.294
109.358
107.232
109.415
107.357
109.237
107.651
108.989
107.98
108.761
108.237
108.641
108.331
108.738
108.227
109.038
107.984
109.401
107.75
109.707
107.615
109.93
107.736
109.858
108.148
109.385
108.696
107.738
107.354
108.98
107.22
109.353
107.247
109.266
107.474
109.123
107.733
108.91
108.04
108.693
108.258
108.619
108.329
108.725
108.244
108.972
108.05
109.323
107.805
109.651
107.637
109.901
107.719
109.862
108.122
109.39
108.69
107.654
107.336
108.877
107.36
109.226
107.448
109.179
107.599
109.042
107.822
108.869
108.073
108.689
108.284
108.599
108.388
108.676
108.319
108.926
108.112
109.273
107.919
109.551
107.816
109.787
107.886
109.768
108.256
109.345
108.688
107.491
107.102
109.011
107.135
109.327
107.316
109.162
107.569
109.006
107.828
108.815
108.089
108.647
108.272
108.603
108.326
108.694
108.272
108.889
108.135
109.179
107.952
109.477
107.826
109.748
107.862
109.772
108.249
109.372
108.673
107.234
107.104
108.873
107.516
109.106
107.697
108.978
107.831
108.851
107.984
108.727
108.172
108.609
108.34
108.554
108.424
108.626
108.375
108.832
108.22
109.096
108.083
109.33
108.031
109.514
108.108
109.52
108.451
109.192
108.596
106.676
106.608
109.061
107.029
109.224
107.382
109.019
107.686
108.866
107.934
108.706
108.157
108.583
108.307
108.56
108.358
108.63
108.331
108.778
108.236
109.013
108.091
109.27
107.988
109.48
108.09
109.498
108.613
109.284
108.327
105.717
106.746
108.986
107.975
108.939
108.092
108.742
108.125
108.637
108.188
108.566
108.291
108.521
108.394
108.51
108.453
108.571
108.44
108.706
108.369
108.864
108.311
108.988
108.307
109.049
108.353
108.927
108.539
108.359
107.482
103.73
105.293
108.752
106.965
108.913
107.644
108.766
107.909
108.645
108.109
108.554
108.263
108.496
108.366
108.499
108.416
108.555
108.416
108.659
108.371
108.815
108.293
108.99
108.229
109.006
108.361
108.822
109.058
108.755
106.381
98.9668
103.892
110.454
109.214
109.804
109.444
109.739
109.667
109.795
109.735
109.828
109.806
109.866
109.868
109.906
109.913
109.946
109.94
109.985
109.947
110.016
109.933
110.008
109.867
109.887
109.72
109.97
110.262
110.68
102.853
107.972
107.417
109.628
106.701
110.146
107.97
107.477
109.396
106.906
109.774
107.957
107.402
109.574
106.727
110.062
107.951
107.453
109.359
106.905
109.729
106.87
109.642
107.221
107.935
107.377
109.519
106.715
110.008
106.608
109.906
106.91
107.926
107.407
109.369
106.845
109.771
106.782
109.719
107.093
109.4
108.05
109.104
107.583
109.705
107.109
110.222
106.798
110.457
106.84
110.272
107.414
109.51
108.686
107.911
107.348
109.469
106.7
109.956
106.576
109.961
106.792
109.592
108.019
109.179
107.511
109.793
107.064
110.242
106.807
110.442
106.895
110.255
107.455
109.506
108.693
107.901
107.358
109.383
106.777
109.825
106.682
109.823
106.91
109.531
107.341
109.08
107.878
108.039
109.268
107.445
109.904
106.933
110.387
106.665
110.577
106.779
110.35
107.393
109.539
108.696
107.886
107.32
109.422
106.694
109.95
106.527
109.991
106.728
109.664
107.176
109.181
107.833
108.048
109.216
107.506
109.838
107.038
110.298
106.777
110.49
106.875
110.305
107.446
109.533
108.703
107.874
107.317
109.377
106.73
109.855
106.611
109.854
106.841
109.546
107.268
109.116
107.849
108.07
109.306
107.426
109.983
106.877
110.474
106.607
110.637
106.759
110.388
107.397
109.56
108.706
107.858
107.284
109.418
106.649
109.958
106.487
110
106.718
109.639
107.231
109.109
107.893
108.079
109.177
107.526
109.797
107.091
110.268
106.819
110.488
106.893
110.318
107.461
109.549
108.711
107.843
107.278
109.367
106.693
109.835
106.608
109.788
106.912
109.429
107.394
108.972
107.942
108.1
109.207
107.514
109.921
106.971
110.432
106.655
110.622
106.789
110.381
107.431
109.568
108.713
107.822
107.238
109.414
106.609
109.958
106.483
109.959
106.781
109.477
107.381
108.861
107.972
108.128
109.088
107.708
109.621
107.27
110.151
106.938
110.434
106.952
110.296
107.499
109.553
108.717
107.8
107.231
109.347
106.672
109.796
106.641
109.679
107.068
109.235
107.622
108.752
108.051
108.536
108.346
108.176
109.039
107.801
109.64
107.253
110.219
106.829
110.502
106.898
110.325
107.499
109.56
108.719
107.769
107.174
109.401
106.589
109.922
106.565
109.842
106.946
109.133
107.586
108.775
107.988
108.625
108.207
108.59
108.324
108.676
108.193
108.928
107.965
109.324
107.486
109.982
107.09
110.353
107.024
110.27
107.534
109.551
108.72
107.729
107.156
109.325
106.651
109.765
106.677
109.574
107.242
108.938
107.761
108.664
108.104
108.498
108.293
108.489
108.394
108.602
108.226
108.892
107.999
109.32
107.6
109.92
107.102
110.284
107.104
110.209
107.62
109.525
108.721
107.666
107.059
109.377
106.576
109.85
106.706
109.652
107.146
109.022
107.676
108.758
107.99
108.613
108.217
108.569
108.312
108.641
108.222
108.836
108.059
109.211
107.719
109.795
107.25
110.224
107.126
110.211
107.599
109.533
108.715
107.582
107.039
109.272
106.702
109.677
106.841
109.417
107.385
108.872
107.813
108.662
108.108
108.541
108.329
108.5
108.384
108.606
108.289
108.791
108.1
109.17
107.75
109.698
107.432
110.005
107.399
110.013
107.822
109.446
108.714
107.419
106.827
109.349
106.533
109.735
106.774
109.487
107.252
109.054
107.707
108.791
108.013
108.637
108.208
108.571
108.312
108.615
108.269
108.818