/*--------------------------------*- C++ -*----------------------------------*\
  =========                 |
  \\      /  F ield         | OpenFOAM: The Open Source CFD Toolbox
   \\    /   O peration     | Website:  https://openfoam.org
    \\  /    A nd           | Version:  10
     \\/     M anipulation  |
\*---------------------------------------------------------------------------*/
FoamFile
{
    format      ascii;
    class       volVectorField;
    location    "0.05";
    object      U;
}
// * * * * * * * * * * * * * * * * * * * * * * * * * * * * * * * * * * * * * //

dimensions      [0 1 -1 0 0 0 0];

internalField   nonuniform List<vector> 
116800
(
(0.672235 -0.00984277 -0.389043)
(1.63629 -0.00939116 0.25934)
(0.216988 -0.00685862 0.0099193)
(0.656928 -0.00842778 0.219097)
(-0.0690171 -0.00680908 0.0513484)
(0.672437 -0.0126516 -0.389067)
(1.63659 -0.0121299 0.259238)
(0.217909 -0.0097699 0.0103782)
(0.656668 -0.0108852 0.21887)
(-0.0675538 -0.00962718 0.0517921)
(0.284781 -0.00994258 0.118743)
(0.672589 -0.0156758 -0.38908)
(1.63682 -0.0151167 0.259179)
(0.218578 -0.0130761 0.0105353)
(0.656658 -0.0137366 0.218815)
(-0.0660285 -0.0123065 0.0520036)
(0.284317 -0.0123093 0.118628)
(-0.0649421 -0.00929024 0.0582177)
(0.138985 -0.010029 0.0860063)
(0.672681 -0.018891 -0.389074)
(1.63707 -0.0182109 0.259178)
(0.218789 -0.0166971 0.0105559)
(0.657378 -0.016386 0.218863)
(-0.0657415 -0.0160487 0.0518989)
(0.285729 -0.0138995 0.118632)
(-0.0647162 -0.0130569 0.058204)
(0.141185 -0.0105139 0.0860403)
(-0.0280101 -0.00953206 0.062256)
(0.0775417 -0.00768739 0.0721842)
(-0.00305316 -0.00644844 0.0666157)
(0.0458869 -0.00445514 0.0729554)
(0.0124307 -0.00310678 0.0710846)
(0.0332145 -0.00131643 0.0730077)
(0.0217512 9.68692e-05 0.0720525)
(0.672728 -0.0224225 -0.389061)
(1.63724 -0.021749 0.259212)
(0.218933 -0.0203231 0.0104679)
(0.658051 -0.0198997 0.219082)
(-0.0648704 -0.0188166 0.0518934)
(0.28652 -0.0171377 0.119061)
(-0.0626964 -0.0143565 0.0586298)
(0.1417 -0.0134823 0.0862763)
(-0.0254016 -0.0104039 0.0628066)
(0.0784132 -0.00964983 0.0727248)
(-0.000840649 -0.00699475 0.0672265)
(0.0467212 -0.00556201 0.0731363)
(0.0149131 -0.00288068 0.0716993)
(0.0345942 -0.0016003 0.073198)
(0.0238888 0.000534663 0.0720642)
(0.033191 0.00207836 0.0731273)
(0.672735 -0.0261739 -0.389033)
(1.63746 -0.0253674 0.259279)
(0.218544 -0.0245053 0.0101082)
(0.659624 -0.0229443 0.219318)
(-0.0655456 -0.0232533 0.05136)
(0.289585 -0.019082 0.1194)
(-0.0635436 -0.0190285 0.0583973)
(0.145739 -0.0143829 0.0868104)
(-0.0252263 -0.0137298 0.0627699)
(0.0818601 -0.0100045 0.073104)
(6.5647e-05 -0.00883329 0.0673001)
(0.0493972 -0.00563849 0.0737707)
(0.0168594 -0.00372573 0.0718297)
(0.0368803 -0.00154082 0.0733582)
(0.0260574 0.000612493 0.0725324)
(0.0351965 0.00273938 0.0728365)
(0.026891 0.00527615 0.07205)
(0.672753 -0.0303457 -0.38901)
(1.63767 -0.0295798 0.259335)
(0.21847 -0.0283343 0.0100088)
(0.660787 -0.0271649 0.219627)
(-0.0650367 -0.0261034 0.0513889)
(0.291369 -0.0232456 0.119983)
(-0.0619691 -0.0206313 0.0588334)
(0.147611 -0.0182231 0.0873691)
(-0.0228448 -0.0150094 0.0632969)
(0.0843275 -0.0125414 0.073867)
(0.00234849 -0.00971339 0.0682033)
(0.051584 -0.0068936 0.0740724)
(0.0198433 -0.00374842 0.0727855)
(0.0391919 -0.00165539 0.0735717)
(0.0286488 0.00113743 0.0727235)
(0.0375034 0.00355708 0.0730812)
(0.029368 0.00640147 0.0715934)
(0.0417052 0.00904286 0.0728399)
(0.67278 -0.0348154 -0.388982)
(1.63795 -0.0339393 0.259396)
(0.21814 -0.0329026 0.00965757)
(0.662597 -0.0309149 0.219931)
(-0.0654509 -0.0306108 0.0509143)
(0.294804 -0.026007 0.12045)
(-0.0621796 -0.0250778 0.0586962)
(0.15192 -0.0201471 0.0879939)
(-0.0222398 -0.0185864 0.063301)
(0.0886912 -0.0137848 0.074548)
(0.00381811 -0.0118149 0.068555)
(0.0551635 -0.0075324 0.0751919)
(0.0224561 -0.00488143 0.0726648)
(0.0419436 -0.00176141 0.0739149)
(0.032061 0.00179465 0.0727648)
(0.039661 0.00416989 0.0726956)
(0.0334387 0.00845139 0.0722092)
(0.0437376 0.0100009 0.0717362)
(0.02284 0.0142934 0.071741)
(0.0554221 0.0164417 0.0729937)
(-0.00829378 0.0195506 0.0676595)
(0.672864 -0.039786 -0.388967)
(1.6383 -0.0389368 0.259404)
(0.218284 -0.0372997 0.00964436)
(0.663979 -0.0357477 0.220189)
(-0.0646731 -0.0340435 0.0510372)
(0.297137 -0.0306452 0.120895)
(-0.0602579 -0.0274887 0.0591225)
(0.15454 -0.0243732 0.0884794)
(-0.0197116 -0.0205196 0.0637432)
(0.0920584 -0.0166494 0.0753582)
(0.0064756 -0.0130408 0.0694945)
(0.0584674 -0.00908394 0.0757645)
(0.025749 -0.00533353 0.0729936)
(0.0449685 -0.00163813 0.074342)
(0.0357898 0.00233478 0.0727861)
(0.042717 0.00562786 0.072952)
(0.0373027 0.00956268 0.0722116)
(0.0473709 0.0128168 0.0724342)
(0.0266442 0.0165418 0.0717364)
(0.0592032 0.0196011 0.0736588)
(-0.00423398 0.0229371 0.0679794)
(0.0771506 0.0255393 0.0777062)
(-0.0615018 0.028174 0.0617713)
(0.107328 0.0308311 0.101461)
(-0.191108 0.0328522 0.0592777)
(0.106737 0.034653 0.151819)
(-0.537389 0.0356867 0.0432207)
(-0.13055 0.0375004 0.294699)
(-1.41736 0.0335244 -0.352545)
(-0.254488 0.0394414 0.543991)
(0.673009 -0.0452073 -0.388958)
(1.63878 -0.0442766 0.259388)
(0.218561 -0.042406 0.00956768)
(0.665617 -0.0404759 0.220457)
(-0.0639382 -0.0386222 0.0510001)
(0.300165 -0.0345286 0.121281)
(-0.058602 -0.0316115 0.0593116)
(0.158065 -0.027584 0.0887872)
(-0.0174627 -0.0238399 0.0641412)
(0.0954924 -0.0193029 0.0760159)
(0.00982408 -0.0146351 0.070358)
(0.0618719 -0.0106584 0.0759031)
(0.029763 -0.00569055 0.0735156)
(0.0482125 -0.00186206 0.074521)
(0.0402164 0.00291086 0.0732906)
(0.0459456 0.00632782 0.0730097)
(0.0421995 0.0112813 0.0728751)
(0.0502938 0.0141694 0.0720283)
(0.0324524 0.0196435 0.0721899)
(0.0626737 0.0216789 0.0735484)
(0.00134658 0.0262278 0.0687326)
(0.0809453 0.0284161 0.0770182)
(-0.0566842 0.0319977 0.0621243)
(0.11021 0.034464 0.101035)
(-0.186757 0.0374921 0.0595108)
(0.109701 0.0390655 0.151979)
(-0.534627 0.0408267 0.0434326)
(-0.128207 0.0426473 0.294512)
(-1.41587 0.0389937 -0.352261)
(-0.253786 0.0449819 0.543798)
(0.673238 -0.0512533 -0.388966)
(1.63939 -0.0503008 0.259301)
(0.219337 -0.0477663 0.00974977)
(0.666994 -0.0460502 0.220645)
(-0.0622664 -0.0429609 0.0514422)
(0.302672 -0.0395381 0.121538)
(-0.0555327 -0.0351186 0.059783)
(0.161011 -0.031724 0.088962)
(-0.0141543 -0.0266058 0.06461)
(0.0986643 -0.0219393 0.076916)
(0.0136363 -0.0164794 0.0708138)
(0.0653535 -0.0115735 0.0766196)
(0.0342795 -0.00605959 0.0730454)
(0.052444 -0.00138761 0.0753096)
(0.044716 0.00334916 0.0735296)
(0.0502979 0.00789028 0.0734334)
(0.046669 0.0124624 0.0731128)
(0.0552276 0.0174913 0.0731925)
(0.0373769 0.0216364 0.072049)
(0.0682916 0.0258075 0.0743911)
(0.0062226 0.0292226 0.0687703)
(0.0862014 0.0325121 0.0772577)
(-0.0519983 0.0357376 0.0621995)
(0.11388 0.0389281 0.100905)
(-0.182098 0.0422024 0.0596256)
(0.113214 0.0441252 0.152253)
(-0.531495 0.0463153 0.0436181)
(-0.125499 0.0484272 0.294309)
(-1.41408 0.0450339 -0.351936)
(-0.252948 0.0511347 0.543565)
(0.673563 -0.0579743 -0.388987)
(1.64019 -0.056941 0.25916)
(0.220525 -0.0538404 0.0100351)
(0.668473 -0.0519422 0.220819)
(-0.0601889 -0.0480535 0.0521608)
(0.305452 -0.0445294 0.121685)
(-0.0519127 -0.0394089 0.0602322)
(0.164358 -0.0356139 0.0890059)
(-0.0105234 -0.0298811 0.065182)
(0.10201 -0.0246047 0.077681)
(0.0179122 -0.0182069 0.0713916)
(0.0688974 -0.012795 0.0771037)
(0.0396768 -0.0063325 0.0735822)
(0.0568992 -0.00167806 0.0754865)
(0.0500145 0.0039688 0.074182)
(0.0551154 0.00892431 0.0740987)
(0.0522998 0.0144882 0.0737878)
(0.0593297 0.0187295 0.0733071)
(0.0444301 0.0250014 0.0728217)
(0.072726 0.0276634 0.0745218)
(0.0135437 0.0334121 0.0693503)
(0.0907843 0.0355154 0.0766346)
(-0.0455966 0.0402512 0.0626759)
(0.117177 0.0430346 0.100413)
(-0.176088 0.0476778 0.0599847)
(0.116756 0.0493856 0.15239)
(-0.527502 0.0525179 0.0439447)
(-0.122577 0.0547638 0.294001)
(-1.41179 0.051779 -0.351526)
(-0.251949 0.0580234 0.543283)
(0.674 -0.065542 -0.389027)
(1.64118 -0.0644371 0.258937)
(0.222291 -0.060557 0.0105328)
(0.66991 -0.0586465 0.220889)
(-0.0572059 -0.0535291 0.0531802)
(0.30799 -0.0502576 0.1216)
(-0.0470306 -0.0436577 0.0608897)
(0.167522 -0.0400729 0.0887935)
(-0.00601096 -0.0330745 0.0659212)
(0.105103 -0.0274884 0.0783885)
(0.0230725 -0.0197987 0.0719812)
(0.0728106 -0.0139477 0.0776194)
(0.0457157 -0.00682175 0.0743725)
(0.0622706 -0.00133193 0.0761823)
(0.0555618 0.00446686 0.0746074)
(0.0609834 0.0104263 0.0748788)
(0.0574505 0.0155235 0.0737154)
(0.0654497 0.0218159 0.0745904)
(0.0503854 0.0269587 0.0728621)
(0.0792793 0.0320812 0.0754601)
(0.0200784 0.0368695 0.0693836)
(0.0973649 0.040412 0.0767795)
(-0.0395321 0.0444881 0.0629067)
(0.121615 0.0483147 0.100134)
(-0.169657 0.0532845 0.0602497)
(0.121106 0.0554628 0.152595)
(-0.522942 0.0593154 0.0442716)
(-0.119124 0.0619211 0.293644)
(-1.40901 0.0593364 -0.351036)
(-0.250733 0.0657883 0.542942)
(0.674568 -0.0741008 -0.389088)
(1.64243 -0.0728844 0.258629)
(0.224626 -0.068203 0.0112027)
(0.671511 -0.0660195 0.220897)
(-0.0534137 -0.0597697 0.0542887)
(0.310765 -0.0561432 0.121376)
(-0.0414293 -0.0484931 0.0615741)
(0.17137 -0.0441895 0.0885543)
(-0.0014398 -0.0367033 0.0665883)
(0.108863 -0.0297167 0.079291)
(0.0284766 -0.0214162 0.0721375)
(0.0779331 -0.0146957 0.0789969)
(0.0518299 -0.00780082 0.0746469)
(0.0682352 -0.0015465 0.0768925)
(0.0619498 0.0049558 0.0752243)
(0.0668651 0.0109514 0.0752784)
(0.0644028 0.0178296 0.074829)
(0.0702239 0.0226252 0.0742274)
(0.0586117 0.0305006 0.074101)
(0.0835284 0.0340397 0.0754969)
(0.0301915 0.0426401 0.0699649)
(0.103278 0.04415 0.0763897)
(-0.0314446 0.0497808 0.0635747)
(0.125726 0.0531845 0.0995731)
(-0.161544 0.0598232 0.06075)
(0.125729 0.0619128 0.152633)
(-0.517191 0.0670669 0.0447255)
(-0.115246 0.0698325 0.293143)
(-1.40549 0.0678673 -0.35042)
(-0.249254 0.074612 0.542526)
(0.675296 -0.0838733 -0.389173)
(1.64398 -0.0825329 0.2582)
(0.227711 -0.0767969 0.0121566)
(0.673188 -0.0743943 0.220778)
(-0.0483623 -0.0664572 0.0556802)
(0.313384 -0.062844 0.120946)
(-0.0342537 -0.053139 0.0624979)
(0.174937 -0.0490211 0.0879676)
(0.00425413 -0.0398137 0.0676002)
(0.11117 -0.0328657 0.079821)
(0.0365545 -0.0218742 0.0724038)
(0.0829543 -0.0163811 0.0792835)
(0.0591932 -0.00836302 0.075314)
(0.0748503 -0.00168955 0.0777248)
(0.0686783 0.00509759 0.0757821)
(0.073991 0.0122923 0.0763274)
(0.0706951 0.0185306 0.0751433)
(0.0774075 0.0258987 0.0756977)
(0.0651971 0.0321715 0.0743807)
(0.0901939 0.0388193 0.0766632)
(0.0389511 0.0457768 0.070331)
(0.111728 0.0497668 0.076897)
(-0.0238018 0.0547146 0.0644138)
(0.131642 0.0594882 0.0992285)
(-0.152858 0.0665102 0.0611065)
(0.131349 0.069705 0.152471)
(-0.510226 0.0755528 0.0451847)
(-0.110612 0.0787976 0.292525)
(-1.40114 0.0775578 -0.34966)
(-0.247422 0.0847342 0.542015)
(0.676218 -0.0951212 -0.389285)
(1.64594 -0.0935934 0.257623)
(0.23152 -0.0867501 0.0132964)
(0.675285 -0.0836758 0.220553)
(-0.0423923 -0.0742603 0.0571051)
(0.316765 -0.0696468 0.12034)
(-0.0267028 -0.0587058 0.063435)
(0.179956 -0.0526315 0.0874041)
(0.00968077 -0.0431543 0.0688204)
(0.114982 -0.0343309 0.0805235)
(0.044838 -0.0236355 0.0732002)
(0.089489 -0.0171177 0.0801882)
(0.0667788 -0.00920847 0.0760392)
(0.0820591 -0.00207137 0.0784619)
(0.0761325 0.00535421 0.0765902)
(0.0810113 0.0124088 0.076872)
(0.0783632 0.0200783 0.0761591)
(0.0837315 0.0266036 0.0758735)
(0.073679 0.0350586 0.0754309)
(0.095651 0.0407001 0.0771011)
(0.0502525 0.0504801 0.071376)
(0.119426 0.0537337 0.0774135)
(-0.0138172 0.0612482 0.0664428)
(0.13766 0.0652831 0.0986032)
(-0.141878 0.0743472 0.0616519)
(0.136917 0.077894 0.15164)
(-0.50095 0.085277 0.0458504)
(-0.105276 0.0888687 0.291722)
(-1.39556 0.0887021 -0.348657)
(-0.245144 0.0964824 0.541378)
(0.677412 -0.108204 -0.389439)
(1.64845 -0.106407 0.256833)
(0.236552 -0.0978007 0.0149153)
(0.677524 -0.0942707 0.220156)
(-0.0343843 -0.0820962 0.058936)
(0.319765 -0.0776498 0.119566)
(-0.017071 -0.0635589 0.0646722)
(0.183206 -0.0574848 0.0864277)
(0.0185143 -0.0437527 0.070452)
(0.118148 -0.0372212 0.0810148)
(0.0554253 -0.0247672 0.0744536)
(0.0958173 -0.0189711 0.0803191)
(0.0757103 -0.009859 0.0767208)
(0.0898635 -0.00240917 0.0795483)
(0.0838699 0.00518099 0.0771496)
(0.0892515 0.0134009 0.0781774)
(0.0852673 0.020272 0.0762812)
(0.0922973 0.0292209 0.0777868)
(0.080746 0.0361759 0.0756201)
(0.103523 0.0445722 0.0784466)
(0.0598331 0.052977 0.0720159)
(0.128348 0.0590763 0.0781618)
(-0.00268082 0.0678497 0.0671776)
(0.146109 0.0722738 0.0978215)
(-0.129935 0.0820556 0.0619797)
(0.143395 0.0875274 0.149917)
(-0.489077 0.0959507 0.0465463)
(-0.098683 0.100321 0.290697)
(-1.38843 0.101576 -0.347387)
(-0.242213 0.110275 0.540559)
(0.678945 -0.123584 -0.389655)
(1.65169 -0.121381 0.255789)
(0.242633 -0.110883 0.0166472)
(0.680715 -0.105951 0.219623)
(-0.0251457 -0.0915195 0.0606134)
(0.324159 -0.0854233 0.118562)
(-0.00745697 -0.0701609 0.0658029)
(0.187827 -0.0608806 0.0854326)
(0.0284503 -0.0460201 0.0711945)
(0.124128 -0.0380771 0.0814856)
(0.0659733 -0.0264472 0.0755747)
(0.103658 -0.0194664 0.0806761)
(0.0849629 -0.0104163 0.0776975)
(0.0978891 -0.00300095 0.0795814)
(0.0924517 0.00546533 0.0781031)
(0.0970919 0.0131192 0.0786132)
(0.0939569 0.0218924 0.0776656)
(0.0995407 0.0293031 0.0781645)
(0.0897985 0.0386431 0.0767304)
(0.110197 0.0459025 0.0789908)
(0.0716419 0.0571831 0.0732577)
(0.135597 0.0624414 0.0792751)
(0.012282 0.0752582 0.068063)
(0.15511 0.0784532 0.0968617)
(-0.115075 0.0906885 0.0624933)
(0.150324 0.0967054 0.147593)
(-0.473564 0.108083 0.0476266)
(-0.0907582 0.113485 0.289459)
(-1.37919 0.116798 -0.34562)
(-0.238465 0.126763 0.53951)
(0.681005 -0.141872 -0.389983)
(1.65602 -0.13909 0.25434)
(0.251008 -0.124766 0.0193959)
(0.68412 -0.119288 0.218765)
(-0.012581 -0.100078 0.0631855)
(0.328327 -0.0939106 0.117183)
(0.00498267 -0.074425 0.0675571)
(0.190288 -0.0648339 0.0843085)
(0.0430214 -0.0453132 0.0720347)
(0.130351 -0.0395313 0.0818465)
(0.0784008 -0.0269623 0.0767936)
(0.111558 -0.0203879 0.0810061)
(0.0952114 -0.0106684 0.0785088)
(0.106163 -0.00319387 0.0803128)
(0.101168 0.00524125 0.078729)
(0.105719 0.0136631 0.0795104)
(0.101768 0.0215308 0.0781372)
(0.108227 0.0305984 0.0793747)
(0.0979167 0.0391261 0.0772859)
(0.11833 0.0482552 0.0800094)
(0.0822995 0.0592362 0.0741553)
(0.143336 0.0671543 0.0805261)
(0.0292687 0.0817943 0.0686479)
(0.166831 0.0853059 0.0956245)
(-0.0979579 0.0989618 0.0628684)
(0.159305 0.106084 0.145045)
(-0.454089 0.121488 0.0490165)
(-0.0807756 0.128345 0.287712)
(-1.36672 0.13477 -0.343266)
(-0.233397 0.146674 0.538096)
(0.683753 -0.163904 -0.390487)
(1.66182 -0.16007 0.25242)
(0.261046 -0.141435 0.0224638)
(0.689256 -0.133813 0.217634)
(0.00202156 -0.110401 0.065375)
(0.335391 -0.101012 0.115698)
(0.0177378 -0.0798546 0.0688853)
(0.195335 -0.0663878 0.0839703)
(0.0586312 -0.0467241 0.0731164)
(0.139479 -0.039246 0.0824369)
(0.0910187 -0.0273491 0.0778522)
(0.120912 -0.0197158 0.0814497)
(0.105168 -0.0106491 0.0793651)
(0.115067 -0.00269519 0.0806712)
(0.10988 0.00560915 0.0795722)
(0.113849 0.0134832 0.0802097)
(0.110553 0.0224101 0.0792045)
(0.115896 0.030454 0.0801045)
(0.107146 0.040408 0.0783377)
(0.125755 0.0490602 0.0807839)
(0.0940384 0.0618768 0.0754442)
(0.150664 0.0701467 0.0817515)
(0.0486282 0.087463 0.0695701)
(0.180108 0.0916695 0.094511)
(-0.0774383 0.108435 0.0633753)
(0.17093 0.116796 0.142537)
(-0.429439 0.137167 0.0511619)
(-0.0674546 0.146262 0.285514)
(-1.35009 0.15679 -0.33976)
(-0.226711 0.171352 0.536228)
(0.687552 -0.191098 -0.391328)
(1.66955 -0.185699 0.249591)
(0.276266 -0.156937 0.0285664)
(0.693566 -0.150099 0.215472)
(0.022748 -0.117301 0.06908)
(0.342883 -0.107078 0.113495)
(0.0348156 -0.0804682 0.070624)
(0.200538 -0.0669786 0.084034)
(0.0771413 -0.0456103 0.0747033)
(0.148871 -0.0387574 0.0829664)
(0.105144 -0.0260151 0.0789731)
(0.129872 -0.0191187 0.0818532)
(0.116172 -0.00928407 0.0801936)
(0.12317 -0.00229426 0.0812097)
(0.118852 0.00615542 0.0803615)
(0.121843 0.0138352 0.0808148)
(0.118502 0.0219355 0.0800169)
(0.124167 0.0307013 0.0809085)
(0.115773 0.0401585 0.079188)
(0.133617 0.0494853 0.0816149)
(0.105713 0.0626814 0.0766121)
(0.158261 0.0717944 0.0828006)
(0.0690135 0.0912113 0.0706948)
(0.193871 0.0966411 0.0933884)
(-0.052015 0.118929 0.0654598)
(0.184898 0.126425 0.139535)
(-0.395949 0.154461 0.0539656)
(-0.0505478 0.164867 0.282111)
(-1.32478 0.183682 -0.334334)
(-0.217593 0.202265 0.533583)
(0.692521 -0.225664 -0.392607)
(1.67961 -0.216553 0.245973)
(0.293762 -0.176342 0.0348169)
(0.701148 -0.166419 0.212632)
(0.0469699 -0.124252 0.0724724)
(0.350912 -0.108759 0.111388)
(0.0575577 -0.0735169 0.0711852)
(0.209794 -0.0635018 0.0849811)
(0.0971483 -0.0425009 0.0762022)
(0.159966 -0.0348767 0.0837128)
(0.119214 -0.0226969 0.080015)
(0.139853 -0.0150057 0.0825132)
(0.126049 -0.00650243 0.0811122)
(0.131871 0.00103129 0.0819826)
(0.126872 0.00842804 0.0812388)
(0.129503 0.015776 0.0818294)
(0.126359 0.0237609 0.0809891)
(0.131408 0.0315144 0.0819668)
(0.124639 0.041331 0.0803169)
(0.141036 0.0502821 0.0825755)
(0.117562 0.0640241 0.078042)
(0.166023 0.0739222 0.0838894)
(0.088842 0.0947387 0.0723473)
(0.206926 0.103184 0.0927709)
(-0.020322 0.133128 0.0691572)
(0.204521 0.139346 0.136413)
(-0.353079 0.174726 0.0574821)
(-0.0251611 0.189259 0.277673)
(-1.28919 0.217373 -0.325724)
(-0.205859 0.241878 0.530082)
(0.698376 -0.273185 -0.394733)
(1.6903 -0.259769 0.241103)
(0.325803 -0.187495 0.0515558)
(0.702498 -0.185955 0.206556)
(0.0845102 -0.123461 0.0785356)
(0.352327 -0.109647 0.108009)
(0.0924128 -0.0637619 0.0727409)
(0.219972 -0.0585895 0.0865578)
(0.12025 -0.0363365 0.0780452)
(0.170531 -0.0299825 0.0842711)
(0.133877 -0.0175541 0.0811669)
(0.148813 -0.0110297 0.0831372)
(0.13621 -0.00236912 0.0820638)
(0.139253 0.00377473 0.0826624)
(0.134849 0.0110417 0.0822092)
(0.136178 0.0173169 0.0825213)
(0.133675 0.0247082 0.0820352)
(0.138159 0.0318882 0.0827745)
(0.132996 0.0411242 0.0814434)
(0.147856 0.0493708 0.0834938)
(0.129436 0.0631991 0.0795373)
(0.172382 0.0720811 0.0848439)
(0.109753 0.0954918 0.0741777)
(0.213663 0.10326 0.0905305)
(0.0225376 0.143571 0.0700753)
(0.224079 0.143702 0.131076)
(-0.291162 0.197232 0.0623127)
(0.00560971 0.207525 0.269539)
(-1.22685 0.258768 -0.309343)
(-0.192994 0.289577 0.525358)
(0.699528 -0.33567 -0.397565)
(1.69786 -0.315312 0.233851)
(0.359174 -0.208725 0.0621369)
(0.712765 -0.19875 0.19921)
(0.129055 -0.120239 0.0825996)
(0.361352 -0.0999829 0.10487)
(0.129169 -0.0525081 0.0740155)
(0.233253 -0.0456071 0.087683)
(0.143514 -0.0242034 0.0794377)
(0.181286 -0.0178702 0.0850026)
(0.147595 -0.00646901 0.0822303)
(0.157336 -0.000237155 0.083956)
(0.14489 0.00693618 0.0830272)
(0.146208 0.0127053 0.0835944)
(0.141398 0.018542 0.0831675)
(0.142235 0.0242017 0.0835961)
(0.139862 0.0303859 0.0830804)
(0.143925 0.0364882 0.0838187)
(0.140438 0.0447417 0.0827007)
(0.1538 0.0519919 0.0843924)
(0.140554 0.0650006 0.0811912)
(0.178388 0.0735872 0.0858256)
(0.129546 0.0966544 0.0763959)
(0.221254 0.106301 0.0897761)
(0.0659221 0.147898 0.0712743)
(0.248191 0.153785 0.125753)
(-0.214278 0.221763 0.0690624)
(0.0579788 0.233407 0.255129)
(-1.12732 0.294515 -0.285817)
(-0.177197 0.327145 0.519589)
(0.664719 -0.404147 -0.40264)
(1.68234 -0.408706 0.21855)
(0.449985 -0.197256 0.107779)
(0.691448 -0.214947 0.177419)
(0.212466 -0.0838923 0.0813056)
(0.360527 -0.0876574 0.0946201)
(0.180145 -0.031795 0.0731918)
(0.240425 -0.0317649 0.0835129)
(0.169418 -0.00839693 0.0777131)
(0.188926 -0.00516915 0.0816768)
(0.1607 0.0057557 0.0798282)
(0.163738 0.00999346 0.0810681)
(0.152521 0.0162892 0.080518)
(0.151336 0.0204105 0.0809169)
(0.146926 0.0253615 0.0807149)
(0.146598 0.0294391 0.080945)
(0.145028 0.0346987 0.0807389)
(0.14816 0.0392844 0.0812358)
(0.146788 0.0464086 0.0805092)
(0.157772 0.0515769 0.0817968)
(0.150869 0.0637904 0.0794889)
(0.180643 0.0686058 0.082978)
(0.150956 0.0933659 0.0763622)
(0.220205 0.094764 0.0870743)
(0.1163 0.147031 0.0725997)
(0.252495 0.138125 0.11321)
(-0.0920621 0.244837 0.0799995)
(0.116224 0.2126 0.22587)
(-0.91355 0.308594 -0.231362)
(-0.157989 0.280653 0.512168)
(0.45881 -0.291446 -0.425309)
(1.58821 -0.494598 0.128685)
(0.545126 -0.250803 0.0691079)
(0.719969 -0.178638 0.138288)
(0.294349 -0.0495228 0.0508108)
(0.381947 -0.0318888 0.0694969)
(0.221294 0.00992355 0.0506618)
(0.252885 0.0139246 0.0606127)
(0.190066 0.0304146 0.055836)
(0.197098 0.0334108 0.0592735)
(0.171626 0.04102 0.0577721)
(0.169794 0.0440277 0.0588411)
(0.159058 0.048272 0.0584697)
(0.156139 0.0511618 0.058863)
(0.151636 0.0543287 0.0587547)
(0.150691 0.0571859 0.059044)
(0.149312 0.0605269 0.058886)
(0.151875 0.0636179 0.0593577)
(0.15187 0.0683972 0.058878)
(0.161217 0.0719833 0.0599667)
(0.158795 0.0804272 0.0583403)
(0.183477 0.0845787 0.0614574)
(0.166168 0.101493 0.056202)
(0.222839 0.106164 0.0662776)
(0.152766 0.142355 0.0524158)
(0.266818 0.145746 0.0860526)
(0.0305423 0.22155 0.0552509)
(0.241456 0.181535 0.16659)
(-0.506878 0.199109 -0.191304)
(0.0402635 -0.116253 0.464725)
(0.382433 1.31159 -0.371767)
(1.17081 -1.04658 0.0374802)
(0.872675 -0.151547 0.078129)
(0.75425 -0.0892341 0.057024)
(0.443844 0.0705664 0.03588)
(0.384382 0.0494912 0.0437336)
(0.271845 0.0959816 0.0409179)
(0.252288 0.0869595 0.0449365)
(0.208669 0.103386 0.0445396)
(0.19797 0.101152 0.0462845)
(0.178732 0.107122 0.0462844)
(0.17103 0.107484 0.0469938)
(0.161734 0.110052 0.0471004)
(0.15686 0.111086 0.0473982)
(0.152536 0.112755 0.0474678)
(0.150628 0.11388 0.0476135)
(0.149497 0.115696 0.0475786)
(0.150915 0.116762 0.0476944)
(0.152311 0.119681 0.0474161)
(0.158686 0.120045 0.0476267)
(0.161516 0.126347 0.0468284)
(0.176983 0.123857 0.0475282)
(0.176056 0.1397 0.0455112)
(0.207117 0.129008 0.0477458)
(0.183716 0.169204 0.0432224)
(0.239841 0.138839 0.0491431)
(0.157633 0.234982 0.0378263)
(0.354821 0.123686 0.0552662)
(0.377187 0.105919 -0.0190878)
(2.05692 -1.62118 0.368884)
(0.686179 -0.0108883 -0.419676)
(0.707518 -0.0117461 1.14627)
(-0.642577 -0.00675128 -1.03457)
(0.360838 -0.0134018 0.639069)
(-0.324876 -0.0035681 -0.516994)
(0.68661 -0.0136412 -0.419787)
(0.708709 -0.0142957 1.14534)
(-0.642938 -0.010343 -1.03156)
(0.361666 -0.0154662 0.635377)
(-0.32405 -0.00679535 -0.511666)
(0.204028 -0.0156885 0.345488)
(0.686911 -0.0166247 -0.419924)
(0.710014 -0.0165573 1.14494)
(-0.643832 -0.0151435 -1.03101)
(0.364455 -0.0159702 0.633988)
(-0.325008 -0.0128541 -0.510094)
(0.20768 -0.0143448 0.343073)
(-0.151654 -0.00988527 -0.25991)
(0.127195 -0.0123427 0.177492)
(0.68695 -0.0197068 -0.420005)
(0.710072 -0.0194766 1.14518)
(-0.642332 -0.0193144 -1.0308)
(0.363953 -0.0183046 0.634129)
(-0.322366 -0.0168783 -0.509814)
(0.206982 -0.016382 0.343008)
(-0.149451 -0.0130302 -0.260485)
(0.129762 -0.0139748 0.177493)
(-0.0660936 -0.00930357 -0.129367)
(0.0845863 -0.0114951 0.0862955)
(-0.0175046 -0.00623633 -0.0569722)
(0.0556097 -0.00752282 0.0391651)
(0.0114883 -0.00386995 -0.0209225)
(0.040901 -0.00381439 0.0169095)
(0.0287316 -0.000540422 -0.00669636)
(0.686946 -0.0232486 -0.420166)
(0.710936 -0.0224042 1.1456)
(-0.642576 -0.0243821 -1.0321)
(0.366838 -0.0197655 0.635443)
(-0.323013 -0.0227893 -0.511515)
(0.211389 -0.016504 0.345209)
(-0.149116 -0.0188133 -0.259856)
(0.130795 -0.014248 0.177423)
(-0.0629455 -0.0132261 -0.126749)
(0.0849247 -0.0120611 0.0836038)
(-0.014567 -0.00816608 -0.052458)
(0.056578 -0.00893794 0.0362373)
(0.0142392 -0.00367937 -0.0172985)
(0.0424298 -0.00521043 0.0172277)
(0.030224 0.000233309 -0.00896117)
(0.0312428 -0.00149664 0.0155248)
(0.686653 -0.0268429 -0.420239)
(0.710033 -0.026016 1.14667)
(-0.639559 -0.0287797 -1.03435)
(0.365452 -0.0226977 0.638297)
(-0.319097 -0.0275506 -0.515543)
(0.210707 -0.0186329 0.34897)
(-0.147113 -0.0238615 -0.264887)
(0.135112 -0.015837 0.181161)
(-0.0638068 -0.0169861 -0.130484)
(0.0895762 -0.0128559 0.0871679)
(-0.014277 -0.0107244 -0.0560403)
(0.0601269 -0.0091514 0.0396264)
(0.0153157 -0.0053729 -0.0190524)
(0.0448976 -0.00492899 0.0161352)
(0.0325347 -0.000873342 -0.00478052)
(0.0335382 0.000124476 0.00985384)
(0.0457241 0.00361702 -0.00673115)
(0.686495 -0.031084 -0.420427)
(0.710598 -0.030261 1.14735)
(-0.639112 -0.0328414 -1.03591)
(0.36798 -0.0269401 0.640228)
(-0.318936 -0.0307115 -0.517758)
(0.214852 -0.022972 0.352171)
(-0.14622 -0.0256502 -0.266151)
(0.137347 -0.0198761 0.183172)
(-0.0598518 -0.0193222 -0.12973)
(0.0910507 -0.0155459 0.0862936)
(-0.0108162 -0.0120367 -0.0516647)
(0.0619073 -0.0110646 0.0360929)
(0.0185225 -0.00574161 -0.0116665)
(0.0469793 -0.00596096 0.0155823)
(0.0353234 -0.00017282 -0.00470142)
(0.035785 -0.000685404 0.0125621)
(0.0480644 0.00578604 -0.0132801)
(0.0191845 0.00415529 0.0242736)
(0.6862 -0.0354467 -0.420545)
(0.709938 -0.0348275 1.14856)
(-0.636086 -0.0373237 -1.03867)
(0.367513 -0.0309525 0.643581)
(-0.315075 -0.035334 -0.522565)
(0.21553 -0.0258723 0.356779)
(-0.143811 -0.0303982 -0.271236)
(0.14109 -0.0219345 0.187224)
(-0.0593545 -0.0233053 -0.134091)
(0.0966737 -0.0171707 0.0910845)
(-0.00971994 -0.014748 -0.0566555)
(0.0663603 -0.0120026 0.0423217)
(0.0204425 -0.00743697 -0.0156339)
(0.0504625 -0.00625515 0.0151837)
(0.0378166 -0.000936929 -0.00197212)
(0.0395063 2.48153e-05 0.00576349)
(0.0505516 0.00585754 -0.00290598)
(0.022144 0.00626094 0.00908719)
(0.071255 0.0126555 -0.0222105)
(-0.00722651 0.0127845 0.0502726)
(0.108386 0.0197073 -0.0817999)
(0.686108 -0.0404978 -0.420769)
(0.710648 -0.0403434 1.14907)
(-0.635089 -0.041067 -1.03969)
(0.36992 -0.0372586 0.644696)
(-0.313786 -0.0372754 -0.523887)
(0.21958 -0.0329649 0.358567)
(-0.142029 -0.0301842 -0.272173)
(0.144072 -0.0292314 0.188844)
(-0.0549474 -0.0230483 -0.135013)
(0.0993699 -0.0227253 0.0926275)
(-0.0055907 -0.0151695 -0.0564226)
(0.0691455 -0.0148922 0.0429197)
(0.0242925 -0.00846464 -0.0151338)
(0.0534582 -0.00727956 0.0167542)
(0.0416048 -0.00145824 -0.00258613)
(0.0425858 -8.96927e-05 0.00775199)
(0.0542786 0.00640067 -0.00574081)
(0.0260051 0.00666652 0.0155278)
(0.0743515 0.0150528 -0.0258661)
(-0.00267964 0.0132819 0.0551499)
(0.111389 0.0239481 -0.0848678)
(-0.0496676 0.0211241 0.138666)
(0.16983 0.0307559 -0.195552)
(-0.126602 0.0281917 0.281016)
(0.280461 0.0357346 -0.380828)
(-0.266679 0.0345147 0.538531)
(0.500755 0.0388405 -0.670456)
(-0.552967 0.0397232 1.1174)
(0.818797 0.0416667 -0.960459)
(-0.694598 0.040684 0.755027)
(0.68606 -0.0458868 -0.420983)
(0.711094 -0.0461314 1.1498)
(-0.632867 -0.0457567 -1.04129)
(0.371294 -0.0428667 0.646534)
(-0.310634 -0.0414399 -0.526538)
(0.222466 -0.0376454 0.360965)
(-0.139699 -0.0341583 -0.274291)
(0.147912 -0.0327598 0.189843)
(-0.0526481 -0.0264358 -0.135473)
(0.104344 -0.0257322 0.0917604)
(-0.00184263 -0.0177495 -0.0541599)
(0.0730342 -0.0167953 0.0388219)
(0.0280821 -0.0099285 -0.0110258)
(0.057455 -0.00789197 0.0140144)
(0.0450029 -0.00198387 0.000593397)
(0.04736 0.000475266 0.00391543)
(0.0572886 0.00609368 -6.94278e-05)
(0.030813 0.00899378 0.0053621)
(0.077801 0.0155341 -0.0187566)
(0.00169671 0.0174427 0.045668)
(0.116103 0.0253572 -0.0784168)
(-0.0460717 0.025144 0.131975)
(0.173573 0.0341242 -0.19067)
(-0.123638 0.0317927 0.276964)
(0.28379 0.0408861 -0.378298)
(-0.264912 0.0383869 0.53654)
(0.503864 0.0446793 -0.669485)
(-0.551692 0.0444868 1.11678)
(0.820111 0.0476441 -0.959877)
(-0.694565 0.0462025 0.75515)
(0.68621 -0.0519972 -0.421285)
(0.712565 -0.0528593 1.1499)
(-0.631676 -0.0502411 -1.04137)
(0.374262 -0.0502274 0.646234)
(-0.30833 -0.0442802 -0.526273)
(0.226726 -0.0449835 0.360521)
(-0.136696 -0.0357436 -0.273544)
(0.151491 -0.03878 0.189383)
(-0.04766 -0.0278361 -0.135496)
(0.107899 -0.0293885 0.0927561)
(0.00341914 -0.019638 -0.0556709)
(0.0769247 -0.0187885 0.0420776)
(0.0332264 -0.0112809 -0.015916)
(0.0613693 -0.00842792 0.0184756)
(0.049966 -0.00258737 -0.0013377)
(0.0506499 0.00115514 0.00487637)
(0.0627779 0.00731371 -0.00365578)
(0.0354522 0.0101918 0.0146475)
(0.0827234 0.0183796 -0.0252147)
(0.00714886 0.0186255 0.0523853)
(0.118973 0.029691 -0.0821917)
(-0.0407639 0.0265283 0.135427)
(0.176239 0.0394676 -0.191931)
(-0.1195 0.0344282 0.277957)
(0.286664 0.0468966 -0.378315)
(-0.262301 0.042379 0.536301)
(0.506971 0.0510489 -0.669186)
(-0.549938 0.0498007 1.11653)
(0.821535 0.0542684 -0.959244)
(-0.694483 0.0523695 0.755257)
(0.686512 -0.0587358 -0.421633)
(0.714452 -0.0601709 1.14992)
(-0.630074 -0.0555739 -1.04123)
(0.377326 -0.0576318 0.645701)
(-0.304985 -0.0483173 -0.525811)
(0.230883 -0.0516879 0.359786)
(-0.132902 -0.0388593 -0.27252)
(0.155557 -0.0441881 0.188157)
(-0.0429263 -0.030151 -0.13432)
(0.112407 -0.0336321 0.0920812)
(0.00887205 -0.0215512 -0.0543587)
(0.0813222 -0.0212592 0.0411943)
(0.0384697 -0.0127026 -0.0135753)
(0.0661076 -0.00889832 0.0147776)
(0.0545744 -0.0028529 0.000461473)
(0.0572328 0.00235994 0.00447671)
(0.0663155 0.00824409 0.000342699)
(0.0418782 0.0120472 0.00686564)
(0.0861684 0.0203454 -0.0186272)
(0.013037 0.0210951 0.0435017)
(0.123872 0.032636 -0.0755181)
(-0.036149 0.0296961 0.128156)
(0.181168 0.0439456 -0.186191)
(-0.115849 0.0380867 0.272687)
(0.291251 0.0530744 -0.374506)
(-0.260093 0.0469131 0.532913)
(0.511405 0.0581147 -0.667295)
(-0.54842 0.0556638 1.11506)
(0.823773 0.0617203 -0.958156)
(-0.694519 0.059245 0.755329)
(0.687027 -0.0663625 -0.422077)
(0.717302 -0.0684667 1.14945)
(-0.628939 -0.0614692 -1.03987)
(0.381628 -0.0660888 0.643379)
(-0.301798 -0.0525766 -0.522869)
(0.236055 -0.0592114 0.356168)
(-0.128503 -0.0422092 -0.268804)
(0.159943 -0.0493603 0.184153)
(-0.0367413 -0.0332069 -0.130846)
(0.116383 -0.0362212 0.0885361)
(0.0159235 -0.0245078 -0.0513487)
(0.0857076 -0.0226088 0.0384831)
(0.0456096 -0.0141953 -0.0112732)
(0.0711844 -0.00932952 0.016344)
(0.061207 -0.00251093 -0.0014742)
(0.0617096 0.00282178 0.00821702)
(0.0724487 0.00990473 -0.00738545)
(0.0475435 0.0131874 0.0166858)
(0.0917201 0.0232033 -0.0253322)
(0.0194949 0.0224107 0.0499312)
(0.127431 0.0370739 -0.0784075)
(-0.0293043 0.0316187 0.129888)
(0.184286 0.0496175 -0.185684)
(-0.109983 0.041351 0.271639)