/*--------------------------------*- C++ -*----------------------------------*\
  =========                 |
  \\      /  F ield         | OpenFOAM: The Open Source CFD Toolbox
   \\    /   O peration     | Website:  https://openfoam.org
    \\  /    A nd           | Version:  10
     \\/     M anipulation  |
\*---------------------------------------------------------------------------*/
FoamFile
{
    format      ascii;
    class       volVectorField;
    location    "0.05";
    object      U_0;
}
// * * * * * * * * * * * * * * * * * * * * * * * * * * * * * * * * * * * * * //

dimensions      [0 1 -1 0 0 0 0];

internalField   nonuniform List<vector> 
116800
(
(0.679021 -0.00987059 -0.392462)
(1.64881 -0.00941425 0.261494)
(0.2154 -0.00691312 0.0144126)
(0.65623 -0.0084569 0.219253)
(-0.0695817 -0.00687345 0.0538766)
(0.679218 -0.0126818 -0.392484)
(1.6491 -0.012158 0.261398)
(0.21631 -0.00981688 0.0148607)
(0.655972 -0.0109237 0.219032)
(-0.0681253 -0.00967101 0.0543105)
(0.283222 -0.00997482 0.120057)
(0.679367 -0.0157079 -0.392497)
(1.64934 -0.0151459 0.26134)
(0.216964 -0.0131269 0.015012)
(0.655978 -0.0137671 0.218976)
(-0.066632 -0.0123651 0.054513)
(0.282795 -0.0123292 0.119938)
(-0.064513 -0.00935672 0.0605663)
(0.137931 -0.0100388 0.0875946)
(0.679458 -0.0189274 -0.392491)
(1.64959 -0.0182485 0.261342)
(0.21718 -0.0167336 0.0150322)
(0.656691 -0.0164282 0.219025)
(-0.0663361 -0.0160717 0.0544077)
(0.284197 -0.0139363 0.119948)
(-0.0642579 -0.0130775 0.060547)
(0.140114 -0.0105542 0.0876342)
(-0.0274029 -0.00953633 0.064665)
(0.0765426 -0.00767787 0.0748159)
(-0.00258593 -0.0064804 0.0692519)
(0.0448848 -0.00444855 0.0754669)
(0.0128543 -0.00314555 0.0736893)
(0.0326048 -0.0013739 0.0755957)
(0.0222507 8.72988e-05 0.0746038)
(0.679507 -0.0224603 -0.392479)
(1.64976 -0.0217864 0.261376)
(0.217317 -0.0203694 0.014941)
(0.657379 -0.0199299 0.219237)
(-0.0654918 -0.0188625 0.0543932)
(0.285021 -0.0171554 0.120365)
(-0.0622551 -0.0144059 0.0609581)
(0.140657 -0.0135093 0.0878439)
(-0.0248569 -0.0104373 0.0652094)
(0.0775006 -0.00964903 0.0753444)
(-0.000410164 -0.00704669 0.0698533)
(0.0457744 -0.0055611 0.0756345)
(0.0153724 -0.00295469 0.0743021)
(0.0339911 -0.00163864 0.075772)
(0.0243913 0.000499072 0.074632)
(0.032797 0.00200393 0.0756984)
(0.679517 -0.026216 -0.392452)
(1.64999 -0.0254138 0.261443)
(0.216945 -0.0245337 0.0145912)
(0.658938 -0.0229889 0.219474)
(-0.0661434 -0.0232583 0.0538709)
(0.288069 -0.0191175 0.120708)
(-0.0630559 -0.0190238 0.0607425)
(0.144646 -0.0144378 0.0883808)
(-0.0246348 -0.0137477 0.0651723)
(0.0809334 -0.0100461 0.0757755)
(0.000500497 -0.00885661 0.06994)
(0.0484828 -0.00565902 0.0762558)
(0.0173587 -0.0038115 0.0744307)
(0.0363034 -0.00158631 0.0759042)
(0.0265557 0.000533144 0.0751038)
(0.0347859 0.0026752 0.0754065)
(0.0275275 0.00518259 0.0746343)
(0.679538 -0.0303876 -0.392431)
(1.6502 -0.0296233 0.261498)
(0.216871 -0.0283781 0.0144871)
(0.66011 -0.0271969 0.219774)
(-0.0656511 -0.0261378 0.0538909)
(0.289882 -0.0232634 0.121278)
(-0.0614849 -0.020668 0.0611648)
(0.146525 -0.018263 0.0889188)
(-0.0222831 -0.0150494 0.0656869)
(0.0834308 -0.0125535 0.0765123)
(0.00278439 -0.0097418 0.0709034)
(0.0507258 -0.00691786 0.0765422)
(0.0203594 -0.0038364 0.0753675)
(0.0386837 -0.00170736 0.0760799)
(0.0291022 0.000968911 0.0753153)
(0.0371932 0.00348809 0.0756037)
(0.0298666 0.00623421 0.0742278)
(0.0413037 0.00900447 0.0753514)
(0.679568 -0.0348602 -0.392403)
(1.65049 -0.0339894 0.261559)
(0.216563 -0.0329318 0.0141474)
(0.661902 -0.0309612 0.220078)
(-0.0660367 -0.0306119 0.0534339)
(0.293295 -0.0260431 0.121747)
(-0.0616366 -0.025071 0.0610333)
(0.150783 -0.0202134 0.0895495)
(-0.0216409 -0.0186133 0.0656917)
(0.0877606 -0.0138201 0.0772192)
(0.0042782 -0.0118164 0.0712635)
(0.0543606 -0.00756809 0.077639)
(0.0229966 -0.00496888 0.0752226)
(0.0415698 -0.00185228 0.0763973)
(0.0324198 0.00161048 0.0754016)
(0.0394434 0.00406068 0.0752164)
(0.0338301 0.0083095 0.0747973)
(0.0433308 0.0099526 0.0742369)
(0.0235502 0.014237 0.0742727)
(0.0548639 0.0164588 0.075436)
(-0.00731067 0.0197053 0.0700905)
(0.679654 -0.0398299 -0.392389)
(1.65085 -0.0389828 0.261567)
(0.216711 -0.0373449 0.0141276)
(0.663287 -0.0357842 0.220331)
(-0.0652669 -0.034074 0.0535564)
(0.295649 -0.030661 0.122185)
(-0.0597135 -0.0275216 0.0614548)
(0.153416 -0.0244176 0.090014)
(-0.0191358 -0.020578 0.0661286)
(0.0910447 -0.0166663 0.0779736)
(0.0070374 -0.0129631 0.0720849)
(0.0577511 -0.00913139 0.0781824)
(0.0262938 -0.00545029 0.0755263)
(0.0446813 -0.00175182 0.076799)
(0.0361229 0.00218493 0.0753262)
(0.0425207 0.00550963 0.0754223)
(0.0376716 0.00946585 0.0747229)
(0.0469847 0.0127462 0.0748845)
(0.0272654 0.0164291 0.0742947)
(0.0585766 0.0195788 0.0760827)
(-0.00323374 0.0229762 0.0703994)
(0.0766242 0.0255571 0.0791352)
(-0.0601173 0.0282112 0.0641037)
(0.106824 0.0308537 0.103102)
(-0.189352 0.0329088 0.0617838)
(0.106823 0.0346739 0.15299)
(-0.535382 0.0357451 0.0462051)
(-0.130241 0.0375359 0.292864)
(-1.42158 0.0335969 -0.347334)
(-0.269295 0.0394939 0.54933)
(0.6798 -0.0452532 -0.392381)
(1.65133 -0.0443258 0.261552)
(0.217006 -0.0424441 0.0140546)
(0.664907 -0.0405244 0.220599)
(-0.0645104 -0.0386338 0.0535448)
(0.298669 -0.0345596 0.122577)
(-0.0580213 -0.03163 0.0616467)
(0.156921 -0.0276435 0.090309)
(-0.0168757 -0.0238884 0.0665239)
(0.0944378 -0.0193578 0.0785974)
(0.0104785 -0.0146771 0.0728941)
(0.061243 -0.010738 0.0782958)
(0.0302702 -0.00586535 0.0760587)
(0.0479666 -0.0019775 0.0769353)
(0.0405553 0.00278408 0.0757492)
(0.0457636 0.00622858 0.0754328)
(0.0425597 0.0111834 0.0753153)
(0.0499577 0.0140958 0.074455)
(0.0329878 0.0195549 0.0746585)
(0.0620114 0.0216692 0.0759655)
(0.00228142 0.0262403 0.0711548)
(0.0804432 0.0284715 0.0785224)
(-0.0552796 0.0320295 0.0644629)
(0.109687 0.0345057 0.102681)
(-0.184994 0.0375411 0.0620069)
(0.109781 0.0390929 0.153162)
(-0.532618 0.0408803 0.0464098)
(-0.127907 0.0426868 0.292679)
(-1.42009 0.039064 -0.347055)
(-0.268597 0.0450347 0.549139)
(0.680028 -0.0512999 -0.392388)
(1.65195 -0.0503473 0.261467)
(0.217792 -0.0478163 0.0142266)
(0.666288 -0.0460916 0.220786)
(-0.0628598 -0.0429849 0.0540223)
(0.301204 -0.0395743 0.12283)
(-0.054955 -0.0351656 0.0621074)
(0.159891 -0.0317692 0.0904649)
(-0.0136047 -0.0266846 0.0669913)
(0.0976605 -0.0219957 0.079457)
(0.0143216 -0.0165695 0.0733301)
(0.0648167 -0.0116673 0.0789924)
(0.0347539 -0.00620807 0.0755264)
(0.052221 -0.00149825 0.0776771)
(0.0450559 0.00323488 0.0759367)
(0.0501329 0.00779643 0.0757968)
(0.0470276 0.0123771 0.075515)
(0.0548928 0.0174255 0.0755533)
(0.0378972 0.0215991 0.0744725)
(0.0675965 0.025795 0.0767756)
(0.00713958 0.0292537 0.0712081)
(0.0856747 0.0325806 0.0787778)
(-0.0505752 0.0357895 0.0645523)
(0.113313 0.0389682 0.102544)
(-0.180312 0.0422645 0.0621188)
(0.113273 0.044147 0.153443)
(-0.529474 0.0463758 0.0465911)
(-0.125214 0.0484643 0.292475)
(-1.4183 0.0451041 -0.346736)
(-0.267762 0.0511886 0.548909)
(0.680349 -0.0580249 -0.392408)
(1.65274 -0.0569901 0.26133)
(0.218994 -0.0538924 0.0145038)
(0.667776 -0.0519941 0.220955)
(-0.0607918 -0.0481006 0.054764)
(0.30399 -0.0445746 0.122964)
(-0.0513225 -0.0394431 0.0625537)
(0.16324 -0.0356666 0.0904928)
(-0.0100111 -0.0299798 0.0675689)
(0.101066 -0.0247027 0.0801904)
(0.0186349 -0.0183107 0.073884)
(0.0684137 -0.012891 0.0794339)
(0.0401598 -0.00644787 0.0759792)
(0.0566936 -0.00177027 0.077807)
(0.0503417 0.00386829 0.0765416)
(0.0549795 0.00885508 0.0764182)
(0.0526366 0.0144021 0.0761366)
(0.0590235 0.0186959 0.0756367)
(0.0449132 0.0249594 0.0751905)
(0.0720661 0.0276876 0.0768834)
(0.0144042 0.0334236 0.0717896)
(0.090281 0.0356763 0.0783282)
(-0.044229 0.0402952 0.065031)
(0.116596 0.043104 0.102057)
(-0.174312 0.0477303 0.0624595)
(0.116821 0.0494195 0.153593)
(-0.525488 0.0525797 0.0469015)
(-0.122293 0.0548064 0.29217)
(-1.41601 0.0518489 -0.346335)
(-0.266765 0.0580787 0.548631)
(0.680779 -0.0655988 -0.392448)
(1.65374 -0.0644872 0.261113)
(0.220766 -0.0606209 0.0149845)
(0.669227 -0.0586986 0.22102)
(-0.0578044 -0.0535974 0.0557499)
(0.306537 -0.0502879 0.122877)
(-0.0464581 -0.043703 0.063204)
(0.166434 -0.0401027 0.0902609)
(-0.00559121 -0.0332041 0.0683104)
(0.104275 -0.0275917 0.0808525)
(0.0238081 -0.0199253 0.0744505)
(0.07238 -0.0140336 0.0799162)
(0.0462062 -0.00692515 0.0767283)
(0.0620892 -0.00141151 0.0784575)
(0.0558806 0.00438147 0.0769326)
(0.0608682 0.0103653 0.0771524)
(0.0577815 0.0154645 0.0760376)
(0.0651466 0.021777 0.0768693)
(0.0508775 0.026943 0.0752121)
(0.0786327 0.0320799 0.0777832)
(0.0209429 0.0368914 0.0718307)
(0.0968266 0.0405262 0.0785366)
(-0.0382091 0.0445479 0.0652774)
(0.120991 0.0483796 0.101778)
(-0.167882 0.0533497 0.0627115)
(0.121172 0.0554963 0.153799)
(-0.520924 0.0593962 0.0472074)
(-0.118845 0.0619619 0.291817)
(-1.41323 0.0594072 -0.345856)
(-0.265551 0.0658453 0.548294)
(0.681338 -0.0741705 -0.392506)
(1.65498 -0.0729399 0.260814)
(0.223108 -0.068272 0.015636)
(0.670837 -0.0660772 0.221025)
(-0.0539927 -0.0598359 0.0568314)
(0.309309 -0.0561788 0.122657)
(-0.0408628 -0.0485257 0.0638862)
(0.170308 -0.0442072 0.0900076)
(-0.00105692 -0.0368202 0.0689869)
(0.108111 -0.0298238 0.0817266)
(0.0292184 -0.0215511 0.0745887)
(0.0775492 -0.0147715 0.0812652)
(0.0523164 -0.00789105 0.076969)
(0.0680887 -0.00160205 0.0791369)
(0.0622492 0.00487985 0.0775155)
(0.0667832 0.0109124 0.0775325)
(0.0647053 0.0177645 0.0771115)
(0.0699605 0.0226112 0.0764974)
(0.0590824 0.0304573 0.0764072)
(0.0829755 0.0340617 0.0777891)
(0.0309986 0.0426155 0.0723575)
(0.102767 0.0443009 0.0783652)
(-0.0302672 0.0498183 0.0659665)
(0.125119 0.053284 0.101233)
(-0.159828 0.0598747 0.0631831)
(0.125818 0.0620149 0.15382)
(-0.515169 0.0671331 0.0476209)
(-0.114954 0.0698748 0.291326)
(-1.40972 0.0679358 -0.345253)
(-0.264073 0.07467 0.547885)
(0.682055 -0.0839591 -0.392591)
(1.65655 -0.0825947 0.260398)
(0.226197 -0.0768816 0.016562)
(0.672536 -0.0744511 0.220905)
(-0.0489319 -0.066539 0.0581908)
(0.311943 -0.0628765 0.122231)
(-0.0337244 -0.0531855 0.0648058)
(0.173947 -0.0489884 0.0893956)
(0.00463334 -0.0399422 0.0699793)
(0.110484 -0.0329392 0.0821825)
(0.0372632 -0.0220055 0.0747933)
(0.0826135 -0.0164477 0.08153)
(0.0596649 -0.0084448 0.0776123)
(0.0747336 -0.00173706 0.0799437)
(0.0689646 0.00503785 0.0780527)
(0.0739279 0.0122526 0.0785478)
(0.0709904 0.0184889 0.0774119)
(0.0771605 0.0258741 0.0779226)
(0.0656761 0.0321511 0.0766738)
(0.0896573 0.0388215 0.0789099)
(0.0397814 0.045804 0.0727024)
(0.111169 0.0498455 0.078973)
(-0.0226908 0.0547877 0.0669124)
(0.131031 0.0595786 0.100898)
(-0.151144 0.0665744 0.0635144)
(0.131299 0.0698564 0.153557)
(-0.508107 0.0755809 0.0480659)
(-0.110297 0.0788388 0.290716)
(-1.40536 0.0776243 -0.34451)
(-0.262241 0.0847931 0.547381)
(0.682962 -0.095219 -0.392702)
(1.65851 -0.0936626 0.259835)
(0.230019 -0.086841 0.0176699)
(0.67465 -0.0837386 0.22068)
(-0.042926 -0.0743276 0.0595809)
(0.315322 -0.0697023 0.121642)
(-0.0262093 -0.0587532 0.0657389)
(0.179001 -0.0525764 0.0888083)
(0.0100617 -0.0431298 0.0713092)
(0.114368 -0.0343463 0.0828411)
(0.0455614 -0.0237176 0.0755523)
(0.0891794 -0.0171671 0.082407)
(0.0672349 -0.0092734 0.0783161)
(0.0819661 -0.00210517 0.0806661)
(0.0763998 0.00530233 0.0788379)
(0.0809755 0.0123869 0.0790826)
(0.0786291 0.0200294 0.0783993)
(0.0835309 0.026603 0.0780937)
(0.0741209 0.0350164 0.0776908)
(0.0951755 0.0407351 0.0793282)
(0.0510164 0.0504597 0.073721)
(0.118838 0.0537306 0.0797061)
(-0.0127673 0.0613947 0.0688672)
(0.137136 0.0654085 0.100267)
(-0.140207 0.0743867 0.0640248)
(0.136821 0.0779963 0.152693)
(-0.498833 0.0853237 0.0486982)
(-0.10493 0.0889073 0.289922)
(-1.39979 0.0887643 -0.343531)
(-0.259961 0.096541 0.546754)
(0.684134 -0.108315 -0.392853)
(1.66103 -0.106482 0.259064)
(0.235059 -0.0979181 0.0192393)
(0.676929 -0.0943307 0.220281)
(-0.0348927 -0.0821756 0.0613716)
(0.318349 -0.0777039 0.120876)
(-0.0166607 -0.0636649 0.0669793)
(0.182201 -0.0574988 0.0877833)
(0.0191405 -0.0436678 0.0728078)
(0.117521 -0.0371919 0.0832555)
(0.0561188 -0.024839 0.0767775)
(0.0955488 -0.018997 0.0825234)
(0.0761392 -0.00991315 0.0789864)
(0.0897942 -0.00243336 0.0817382)
(0.0841196 0.00514118 0.0793883)
(0.08923 0.0133764 0.0803658)
(0.085523 0.0202433 0.0785185)
(0.0921164 0.0292092 0.0799758)
(0.0811791 0.0361567 0.0778756)
(0.103064 0.0445834 0.0806456)
(0.0605773 0.0529736 0.0743517)
(0.127721 0.0590631 0.0805188)
(-0.00162299 0.0678943 0.0695351)
(0.145616 0.0723667 0.0994857)
(-0.128297 0.082077 0.0643245)
(0.143182 0.0876398 0.150898)
(-0.486898 0.0959685 0.0493571)
(-0.0983117 0.100352 0.288923)
(-1.39268 0.101639 -0.342287)
(-0.25703 0.110333 0.545947)
(0.685638 -0.123718 -0.393063)
(1.66428 -0.121471 0.258041)
(0.241176 -0.111009 0.0209225)
(0.680154 -0.106023 0.219746)
(-0.0255915 -0.091584 0.0630205)
(0.322771 -0.0854678 0.119881)
(-0.00709489 -0.0702543 0.0681218)
(0.186834 -0.0608999 0.0868224)
(0.0291738 -0.0460721 0.0735255)
(0.123521 -0.0380936 0.0837019)
(0.0666535 -0.0264981 0.07788)
(0.103405 -0.0194909 0.0828696)
(0.08538 -0.0104565 0.0799458)
(0.0978279 -0.00302517 0.0817684)
(0.0926928 0.0054323 0.080326)
(0.0970845 0.0131035 0.0808005)
(0.0941914 0.0218563 0.0798825)
(0.0993977 0.0293064 0.0803528)
(0.0901909 0.0386041 0.078964)
(0.109794 0.0459317 0.0811803)
(0.0723094 0.0571412 0.0755657)
(0.135047 0.0623922 0.081739)
(0.0132917 0.075247 0.0703347)
(0.15467 0.0785614 0.0985364)
(-0.113507 0.0906677 0.064812)
(0.150121 0.0967361 0.148609)
(-0.471442 0.10811 0.0504109)
(-0.0904039 0.113499 0.287699)
(-1.38343 0.116849 -0.340562)
(-0.253275 0.126816 0.544913)
(0.687658 -0.142043 -0.393379)
(1.6686 -0.139202 0.256621)
(0.249584 -0.12495 0.0235789)
(0.683631 -0.119364 0.218887)
(-0.012997 -0.100196 0.0655313)
(0.327081 -0.0939024 0.118514)
(0.00525908 -0.0745451 0.0698776)
(0.189379 -0.0647584 0.0859127)
(0.0437018 -0.0453969 0.0743512)
(0.129829 -0.0395256 0.0840534)
(0.0790324 -0.0270175 0.0790799)
(0.111344 -0.0203921 0.0831903)
(0.0955969 -0.0107077 0.0807469)
(0.106121 -0.0032071 0.0824897)
(0.101393 0.00521246 0.0809458)
(0.10572 0.0136442 0.0816859)
(0.101994 0.0215055 0.0803519)
(0.1081 0.030588 0.0815468)
(0.0982949 0.0391015 0.0795158)
(0.117954 0.0482649 0.0821813)
(0.0829442 0.0592139 0.0764416)
(0.142829 0.0672231 0.082893)
(0.0302595 0.0818373 0.0708817)
(0.166428 0.0854151 0.0973058)
(-0.0964754 0.0989299 0.0651648)
(0.15911 0.106144 0.146097)
(-0.452023 0.121523 0.0517567)
(-0.0804739 0.128352 0.285986)
(-1.37095 0.134823 -0.33826)
(-0.248198 0.146725 0.54352)
(0.690359 -0.164146 -0.393868)
(1.67439 -0.160232 0.254735)
(0.259733 -0.141642 0.0265575)
(0.688834 -0.133905 0.21775)
(0.00169112 -0.110493 0.067678)
(0.334277 -0.100987 0.117035)
(0.0180095 -0.0799354 0.0712027)
(0.194445 -0.0662671 0.0857723)
(0.0592939 -0.0467458 0.0754395)
(0.138982 -0.0392404 0.0846331)
(0.0916248 -0.0273908 0.0801197)
(0.120709 -0.0197345 0.0836258)
(0.10554 -0.0106845 0.0815885)
(0.115028 -0.0027219 0.0828435)
(0.110099 0.00557571 0.0817767)
(0.113857 0.0134585 0.0823796)
(0.110765 0.0223714 0.0814038)
(0.115797 0.0304425 0.0822702)
(0.10749 0.0403604 0.0805512)
(0.125427 0.0490678 0.0829467)
(0.0946326 0.0618277 0.0777017)
(0.150194 0.0702008 0.0839898)
(0.0495587 0.0874635 0.0717874)
(0.179807 0.091737 0.0961883)
(-0.0760694 0.108361 0.0656497)
(0.170732 0.116848 0.143622)
(-0.427415 0.137185 0.0538363)
(-0.0672321 0.146239 0.283833)
(-1.35429 0.156843 -0.334827)
(-0.241491 0.171394 0.541679)
(0.694106 -0.191429 -0.394693)
(1.68213 -0.185896 0.251957)
(0.275091 -0.157241 0.0324688)
(0.693296 -0.150164 0.215587)
(0.0224556 -0.117436 0.0712924)
(0.341998 -0.10695 0.114867)
(0.0350071 -0.080462 0.0729186)
(0.199742 -0.0669077 0.0860419)
(0.077713 -0.0456329 0.0770261)
(0.148451 -0.0387186 0.0851487)
(0.105692 -0.0260546 0.0812179)
(0.129707 -0.0191077 0.0840197)
(0.116505 -0.00931406 0.0824017)
(0.123151 -0.00229794 0.0833745)
(0.11905 0.00613046 0.0825542)
(0.121861 0.0138214 0.082979)
(0.118701 0.0219083 0.0822085)
(0.124088 0.0306926 0.0830666)
(0.116097 0.0401247 0.0813923)
(0.133325 0.0494936 0.0837671)
(0.106259 0.0626414 0.078851)
(0.157818 0.0718485 0.0849627)
(0.0698185 0.0911536 0.07291)
(0.193778 0.0966859 0.0950509)
(-0.0508042 0.118788 0.0677645)
(0.184734 0.126523 0.140667)
(-0.394029 0.154452 0.0565473)
(-0.0503987 0.164858 0.280491)
(-1.32896 0.18374 -0.32952)
(-0.232321 0.202298 0.53907)
(0.699032 -0.226134 -0.395964)
(1.69225 -0.216845 0.2484)
(0.292928 -0.176668 0.03856)
(0.701033 -0.166471 0.212739)
(0.0468122 -0.124342 0.0746179)
(0.350003 -0.10864 0.112758)
(0.0578389 -0.0734636 0.0734609)
(0.209067 -0.0635353 0.0872491)
(0.0977209 -0.0425041 0.0785179)
(0.159587 -0.0348447 0.0858746)
(0.119721 -0.0227174 0.08224)
(0.1397 -0.0149989 0.0846676)
(0.126362 -0.00651717 0.0833061)
(0.131851 0.00102275 0.0841375)
(0.127065 0.00841316 0.0834203)
(0.129524 0.0157641 0.0839814)
(0.126549 0.023737 0.0831685)
(0.131352 0.0315099 0.0841132)
(0.124936 0.041293 0.0825062)
(0.14079 0.0502879 0.0847168)
(0.118057 0.0639706 0.0802614)
(0.165609 0.0739521 0.0860188)
(0.0896542 0.094689 0.0745336)
(0.206783 0.103243 0.0943496)
(-0.0191429 0.133148 0.0713029)
(0.204365 0.139417 0.137567)
(-0.351251 0.174721 0.0599638)
(-0.0251769 0.189245 0.276137)
(-1.29332 0.217507 -0.321063)
(-0.220488 0.241959 0.535613)
(0.704886 -0.273884 -0.398101)
(1.70308 -0.260189 0.243578)
(0.325417 -0.187929 0.0547878)
(0.702712 -0.18578 0.20672)
(0.084401 -0.123515 0.0805442)
(0.351562 -0.10935 0.109382)
(0.0925899 -0.0636788 0.0749615)
(0.219399 -0.058353 0.0887645)
(0.120737 -0.0363135 0.0803155)
(0.170226 -0.0298592 0.0864191)
(0.134299 -0.0175166 0.0833714)
(0.1487 -0.0109313 0.0852867)
(0.136473 -0.0023205 0.0842458)
(0.139255 0.00385283 0.0848167)
(0.135016 0.0110938 0.0843814)
(0.136215 0.0173859 0.084674)
(0.133846 0.0247555 0.0842064)
(0.13813 0.0319588 0.0849204)
(0.133263 0.0411556 0.0836228)
(0.147669 0.0494559 0.0856284)
(0.129871 0.0632036 0.0817392)
(0.172044 0.0722026 0.0869546)
(0.110455 0.0955221 0.076361)
(0.213557 0.103552 0.0920379)
(0.0236313 0.143563 0.0722316)
(0.22405 0.143897 0.132291)
(-0.289617 0.197199 0.0646544)
(0.00541194 0.207896 0.268121)
(-1.23101 0.259209 -0.305027)
(-0.207395 0.290025 0.53093)
(0.706204 -0.337003 -0.401021)
(1.7112 -0.316051 0.23594)
(0.359559 -0.209088 0.0651957)
(0.713308 -0.198317 0.199461)
(0.129075 -0.120072 0.0845706)
(0.360598 -0.0995951 0.10623)
(0.129414 -0.0523238 0.0761815)
(0.232677 -0.0454027 0.0897725)
(0.14395 -0.0241132 0.0816625)
(0.181012 -0.0177172 0.0871268)
(0.147953 -0.00637491 0.0844123)
(0.157238 -0.000107771 0.0860947)
(0.14512 0.00703824 0.0851944)
(0.146214 0.0128185 0.0857359)
(0.141554 0.0186454 0.085328)
(0.142274 0.024308 0.0857374)
(0.140023 0.03048 0.0852398)
(0.143918 0.0365983 0.0859525)
(0.140681 0.0448167 0.0848641)
(0.153664 0.0521094 0.0865145)
(0.140954 0.0650552 0.0833702)
(0.178123 0.0737165 0.0879223)
(0.130224 0.0967193 0.0785952)
(0.221148 0.106571 0.0915362)
(0.0669627 0.148 0.0734299)
(0.248276 0.154028 0.127013)
(-0.213153 0.221821 0.0711403)
(0.0572203 0.234011 0.253864)
(-1.13162 0.296173 -0.281827)
(-0.191512 0.329089 0.525234)
(0.672232 -0.407393 -0.40638)
(1.69659 -0.409753 0.220336)
(0.45132 -0.197521 0.109831)
(0.692291 -0.213727 0.177831)
(0.212456 -0.0833108 0.0830856)
(0.359966 -0.0868239 0.0962737)
(0.180147 -0.0314564 0.0752997)
(0.240003 -0.0312949 0.0855554)
(0.169647 -0.00818058 0.0798651)
(0.188741 -0.00482827 0.0837745)
(0.160934 0.00597422 0.0819653)
(0.163686 0.0102787 0.0831763)
(0.152688 0.0165156 0.0826463)
(0.151365 0.020667 0.0830312)
(0.147053 0.0255881 0.08284)
(0.146657 0.0296852 0.0830599)
(0.145166 0.0349175 0.0828627)
(0.148193 0.0395369 0.083343)
(0.14699 0.0466077 0.0826328)
(0.157726 0.0518538 0.0838892)
(0.151179 0.0639533 0.0816145)
(0.180544 0.0689298 0.0850367)
(0.15148 0.0934855 0.078488)
(0.220264 0.0950356 0.0889724)
(0.117143 0.147208 0.0746224)
(0.252639 0.138724 0.114508)
(-0.0916842 0.245296 0.0818338)
(0.114528 0.214157 0.225199)
(-0.918855 0.312123 -0.228257)
(-0.172467 0.285657 0.517985)
(0.468196 -0.303643 -0.429984)
(1.60498 -0.494307 0.130327)
(0.547567 -0.248892 0.0711108)
(0.720554 -0.176457 0.138642)
(0.294359 -0.0482562 0.0524558)
(0.381194 -0.0309267 0.0709855)
(0.221224 0.0105872 0.0525581)
(0.252426 0.014549 0.0623755)
(0.190217 0.0309227 0.057722)
(0.196913 0.0339507 0.0610999)
(0.171792 0.0415014 0.0596409)
(0.169749 0.0445371 0.0606846)
(0.159186 0.0487518 0.0603338)
(0.156169 0.0516533 0.0607154)
(0.151745 0.0548073 0.0606179)
(0.150752 0.0576694 0.0608971)
(0.149437 0.0609972 0.060748)
(0.151924 0.0641005 0.061204)
(0.152051 0.0688515 0.0607379)
(0.161215 0.0724696 0.0617971)
(0.159082 0.0808687 0.0602)
(0.183439 0.085074 0.0632545)
(0.166655 0.101944 0.0580651)
(0.222905 0.10671 0.0679668)
(0.15342 0.142951 0.0542524)
(0.266799 0.146763 0.0873165)
(0.0299117 0.223096 0.0570252)
(0.238007 0.185105 0.16688)
(-0.515962 0.206534 -0.189135)
(0.0226049 -0.106574 0.471837)
(0.389673 1.25566 -0.373884)
(1.19675 -1.02994 0.0372913)
(0.876838 -0.141435 0.0779818)
(0.753623 -0.0844335 0.0570929)
(0.442964 0.0733866 0.0361604)
(0.383483 0.0520501 0.0440374)
(0.271467 0.0980938 0.0413062)
(0.251951 0.0891829 0.0453015)
(0.208669 0.10541 0.0449433)
(0.197921 0.103284 0.0466835)
(0.178853 0.109144 0.0466924)
(0.171093 0.109565 0.0473976)
(0.161876 0.112084 0.0475122)
(0.156975 0.113143 0.0478078)
(0.152689 0.11479 0.047882)
(0.15077 0.115928 0.0480252)
(0.14967 0.11772 0.0479937)
(0.151065 0.118812 0.0481042)
(0.152521 0.121677 0.0478301)
(0.158833 0.122108 0.048031)
(0.161798 0.128298 0.0472399)
(0.177162 0.125937 0.0479285)
(0.1765 0.141595 0.0459218)
(0.20742 0.131091 0.048143)
(0.184218 0.171133 0.0436479)
(0.239537 0.141006 0.0494689)
(0.155746 0.237539 0.0382087)
(0.347361 0.126719 0.0550739)
(0.358861 0.11736 -0.0202501)
(2.02245 -1.6116 0.372719)
(0.690033 -0.0109094 -0.420637)
(0.713617 -0.0117438 1.14734)
(-0.643182 -0.00683087 -1.03657)
(0.363064 -0.0133672 0.63919)
(-0.324019 -0.00367744 -0.516227)
(0.690458 -0.013668 -0.420748)
(0.714819 -0.0142968 1.14642)
(-0.643552 -0.0104288 -1.03359)
(0.363914 -0.0154317 0.635548)
(-0.323211 -0.00691709 -0.510953)
(0.204541 -0.0156356 0.34478)
(0.69075 -0.0166531 -0.420884)
(0.71608 -0.0165772 1.14603)
(-0.644396 -0.0152054 -1.03305)
(0.366644 -0.0159772 0.634169)
(-0.324132 -0.012928 -0.509388)
(0.208165 -0.0143472 0.342354)
(-0.150723 -0.00995624 -0.258867)
(0.127195 -0.0123226 0.17652)
(0.690788 -0.0197457 -0.420966)
(0.716167 -0.0195022 1.14627)
(-0.642931 -0.0193792 -1.03286)
(0.366189 -0.018316 0.634338)
(-0.321522 -0.0169509 -0.509147)
(0.207497 -0.016394 0.342355)
(-0.148518 -0.0130749 -0.259478)
(0.129725 -0.0139863 0.17659)
(-0.0656924 -0.00931241 -0.128635)
(0.0845133 -0.0114484 0.0851272)
(-0.0170257 -0.00631389 -0.0560033)
(0.0553259 -0.00745885 0.0384102)
(0.0118271 -0.00392093 -0.020151)
(0.0407567 -0.00374849 0.0163243)
(0.0288297 -0.000591316 -0.00604697)
(0.690779 -0.0232865 -0.421126)
(0.716982 -0.022446 1.14668)
(-0.643128 -0.0244306 -1.03416)
(0.36902 -0.0198082 0.635632)
(-0.32214 -0.0228329 -0.510827)
(0.211906 -0.01655 0.344474)
(-0.148185 -0.018785 -0.258796)
(0.130832 -0.0143455 0.176424)
(-0.0625464 -0.0132186 -0.125936)
(0.0848277 -0.0120646 0.0824077)
(-0.0141143 -0.00821631 -0.051501)
(0.0563234 -0.00889756 0.0354802)
(0.0145765 -0.00372813 -0.016537)
(0.0422798 -0.00514236 0.0166208)
(0.030319 0.000185148 -0.00830543)
(0.0313897 -0.00143457 0.0149197)
(0.690491 -0.0268919 -0.421203)
(0.716118 -0.0260661 1.14775)
(-0.640164 -0.0288204 -1.0364)
(0.367695 -0.0227575 0.638492)
(-0.318258 -0.027573 -0.514856)
(0.211301 -0.0187035 0.348263)
(-0.146228 -0.0237963 -0.263787)
(0.135059 -0.0159784 0.180171)
(-0.0633141 -0.0169503 -0.129667)
(0.089449 -0.0129219 0.0859592)
(-0.0137566 -0.0107254 -0.0550559)
(0.0598462 -0.00915612 0.0388809)
(0.0156812 -0.0053849 -0.0183451)
(0.0447542 -0.00489675 0.01562)
(0.0326265 -0.000886045 -0.00425918)
(0.0336831 0.000162628 0.00940844)
(0.0454719 0.00359937 -0.00614243)
(0.69033 -0.0311292 -0.421389)
(0.716643 -0.0303145 1.14842)
(-0.639678 -0.0328841 -1.03796)
(0.370182 -0.0270029 0.640391)
(-0.318074 -0.0307332 -0.517049)
(0.215462 -0.023054 0.351373)
(-0.145355 -0.0255862 -0.264989)
(0.137361 -0.0200154 0.18207)
(-0.05938 -0.0192673 -0.128829)
(0.0909224 -0.0156354 0.0850467)
(-0.0103042 -0.0120198 -0.0507061)
(0.0616441 -0.0110711 0.0353048)
(0.018896 -0.00576038 -0.0109703)
(0.0468289 -0.00590798 0.0150226)
(0.0354244 -0.000204801 -0.00415804)
(0.0359269 -0.000623438 0.0120383)
(0.0478028 0.00576127 -0.0125896)
(0.0195582 0.00419092 0.0235522)
(0.69004 -0.0355007 -0.421512)
(0.716021 -0.0348888 1.14961)
(-0.636705 -0.0373539 -1.04069)
(0.369779 -0.0310352 0.643718)
(-0.314256 -0.0353289 -0.521816)
(0.216218 -0.0259746 0.355958)
(-0.142985 -0.0302991 -0.269997)
(0.141038 -0.022102 0.186071)
(-0.0588156 -0.0232533 -0.133137)
(0.0965154 -0.0172743 0.0897844)
(-0.00911947 -0.0147195 -0.0556409)
(0.066047 -0.0120166 0.0415195)
(0.0208666 -0.00746098 -0.0149614)
(0.050307 -0.00621431 0.0146607)
(0.0379174 -0.000962417 -0.00149816)
(0.0396589 6.22256e-05 0.00533582)
(0.050274 0.00586698 -0.00232007)
(0.0225393 0.00627359 0.00849008)
(0.0707869 0.0127134 -0.0212795)
(-0.00676025 0.0127265 0.0494044)
(0.108018 0.0198282 -0.0803067)
(0.689946 -0.0405468 -0.421736)
(0.716705 -0.0403965 1.15011)
(-0.63568 -0.0411187 -1.04173)
(0.37216 -0.037315 0.644816)
(-0.312943 -0.0373145 -0.523131)
(0.22029 -0.0330176 0.357683)
(-0.141234 -0.0301615 -0.270875)
(0.144051 -0.0293213 0.187603)
(-0.0544169 -0.022992 -0.133975)
(0.0992257 -0.0227998 0.0912684)
(-0.00499213 -0.0151373 -0.0553824)
(0.0688335 -0.0149059 0.0420752)
(0.0247201 -0.00848053 -0.0144517)
(0.0533082 -0.0072551 0.01617)
(0.0417026 -0.00148237 -0.00205484)
(0.0427633 -4.26612e-05 0.00722633)
(0.0539936 0.00639778 -0.00503281)
(0.026427 0.00671901 0.0147722)
(0.0738347 0.0150786 -0.024731)
(-0.00217303 0.013267 0.0540811)
(0.111003 0.0240287 -0.0831608)
(-0.0495181 0.0210421 0.137682)
(0.169245 0.0308625 -0.19389)
(-0.12665 0.028155 0.279911)
(0.280109 0.0358521 -0.379491)
(-0.267474 0.0344813 0.538046)
(0.501186 0.0389122 -0.670359)
(-0.555675 0.0397408 1.11912)
(0.824215 0.041708 -0.963658)
(-0.695752 0.0407309 0.759556)
(0.689901 -0.0459411 -0.421953)
(0.717173 -0.046188 1.15082)
(-0.633492 -0.0458017 -1.04329)
(0.373574 -0.0429357 0.646619)
(-0.309813 -0.0414616 -0.525724)
(0.22322 -0.0377151 0.360034)
(-0.138918 -0.0341339 -0.27291)
(0.147907 -0.032839 0.188544)
(-0.0520995 -0.0263578 -0.134332)
(0.104169 -0.0258006 0.0903364)
(-0.00118452 -0.0177283 -0.0530443)
(0.0726754 -0.0168032 0.0378975)
(0.0285427 -0.00996237 -0.0102887)
(0.0572925 -0.00787135 0.0134348)
(0.0451266 -0.00200661 0.00107685)
(0.0475344 0.000514853 0.00347738)
(0.0570177 0.0061034 0.000496094)
(0.0312368 0.00902564 0.00471057)
(0.0772681 0.0155843 -0.0177355)
(0.0022159 0.0174235 0.0447192)
(0.115672 0.0254475 -0.0768307)
(-0.0459065 0.0250459 0.131037)
(0.173021 0.0342324 -0.189083)
(-0.123684 0.0317514 0.275909)
(0.283439 0.040997 -0.377001)
(-0.265726 0.038364 0.536097)
(0.504308 0.0447458 -0.6694)
(-0.554403 0.0445145 1.11851)
(0.825526 0.0476809 -0.963084)
(-0.695725 0.0462521 0.75968)
(0.690047 -0.0520497 -0.422256)
(0.71863 -0.052905 1.15092)
(-0.632281 -0.0503108 -1.04339)
(0.376526 -0.0502631 0.646311)
(-0.30749 -0.0443439 -0.525465)
(0.227485 -0.0450104 0.359576)
(-0.13592 -0.0357676 -0.272128)
(0.151536 -0.0388025 0.188056)
(-0.0471258 -0.0277745 -0.134256)
(0.107705 -0.0294022 0.0913177)
(0.00407419 -0.0196598 -0.0545313)
(0.0765606 -0.0187738 0.0411157)
(0.0336809 -0.0113275 -0.0151498)
(0.0612321 -0.00838712 0.017884)
(0.050083 -0.00263006 -0.000822574)
(0.0508603 0.001203 0.00435417)
(0.0624863 0.00728477 -0.00296705)
(0.0359143 0.0102521 0.0138304)
(0.0821587 0.0183862 -0.0240166)
(0.00769402 0.0186686 0.0512194)
(0.118514 0.0297164 -0.0804099)
(-0.0406006 0.0264548 0.134249)
(0.175719 0.0395161 -0.190176)
(-0.119556 0.0344328 0.276733)
(0.286342 0.0469777 -0.376906)
(-0.263154 0.0423814 0.535773)
(0.507453 0.0511041 -0.669044)
(-0.552675 0.0498401 1.11823)
(0.82697 0.0543011 -0.962446)
(-0.695654 0.052419 0.759787)
(0.690345 -0.0587932 -0.422605)
(0.720526 -0.0602154 1.15092)
(-0.630689 -0.0556497 -1.04322)
(0.37961 -0.0576648 0.645745)
(-0.304159 -0.0483847 -0.524946)
(0.231677 -0.0517102 0.358797)
(-0.132131 -0.0388856 -0.271034)
(0.155647 -0.0441917 0.186796)
(-0.0423787 -0.0300781 -0.132936)
(0.112155 -0.0336275 0.0906223)
(0.00955329 -0.0215886 -0.053172)
(0.080942 -0.0212488 0.0402048)
(0.0389553 -0.0127427 -0.0128095)
(0.0659506 -0.0088563 0.0142171)
(0.0547053 -0.00289322 0.000922066)
(0.0574216 0.00242019 0.00409061)
(0.066058 0.00821717 0.000893892)
(0.0423371 0.0121135 0.00622983)
(0.0856219 0.0203539 -0.0176088)
(0.0135733 0.0211421 0.0424841)
(0.123332 0.0326631 -0.0739164)
(-0.0359649 0.0296179 0.126956)
(0.180705 0.0439822 -0.184546)
(-0.115872 0.0381022 0.27153)
(0.290914 0.0531416 -0.373155)
(-0.260947 0.0469333 0.532442)
(0.511888 0.0581553 -0.667172)
(-0.551153 0.0557226 1.11678)
(0.829198 0.0617486 -0.96137)
(-0.695695 0.0592979 0.759861)
(0.690853 -0.0664249 -0.423049)
(0.723365 -0.0685021 1.15044)
(-0.629532 -0.06156 -1.04187)
(0.383897 -0.0661054 0.64343)
(-0.300952 -0.0526619 -0.522006)
(0.236852 -0.0592124 0.355181)
(-0.127724 -0.0422562 -0.267308)
(0.160096 -0.0493334 0.182822)
(-0.0362097 -0.0331737 -0.129324)
(0.116083 -0.0361867 0.0871379)
(0.0165786 -0.0245805 -0.0501525)
(0.0853435 -0.0225652 0.0375063)
(0.0460941 -0.0142645 -0.0104965)
(0.0710481 -0.00926887 0.0157644)
(0.0613423 -0.00256833 -0.000990084)
(0.0619339 0.00290036 0.00773839)
(0.0721641 0.00986079 -0.00675127)
(0.0480408 0.0132698 0.0158914)
(0.0911399 0.0231784 -0.0241658)
(0.0200571 0.0225014 0.048707)
(0.126854 0.0370538 -0.0766768)
(-0.029135 0.0316263 0.128447)
(0.183872 0.0495971 -0.183938)