/*--------------------------------*- C++ -*----------------------------------*\
  =========                 |
  \\      /  F ield         | OpenFOAM: The Open Source CFD Toolbox
   \\    /   O peration     | Website:  https://openfoam.org
    \\  /    A nd           | Version:  10
     \\/     M anipulation  |
\*---------------------------------------------------------------------------*/
FoamFile
{
    format      ascii;
    class       volVectorField;
    location    "0.05";
    object      wallShearStress;
}
// * * * * * * * * * * * * * * * * * * * * * * * * * * * * * * * * * * * * * //

dimensions      [0 2 -2 0 0 0 0];

internalField   uniform (0 0 0);

boundaryField
{
    inlet
    {
        type            calculated;
        value           uniform (0 0 0);
    }
    outlet
    {
        type            calculated;
        value           nonuniform List<vector> 0();
    }
    walls
    {
        type            calculated;
        value           uniform (0 0 0);
    }
    drone
    {
        type            calculated;
        value           nonuniform List<vector> 
7103
(
(-0.0021785 0.00607755 -0.00389683)
(-0.00468677 0.00866932 -0.00395119)
(-0.0165707 0.0133918 0.00197138)
(-0.0146634 -0.0105769 -0.00664816)
(-0.0130925 -0.0151864 -0.00333544)
(-0.00383449 0.000902591 0.000249202)
(-0.00274689 0.000323211 -0.000683335)
(-0.00885055 -0.00383115 -0.00425607)
(-0.00507656 -0.00176961 0.00259493)
(-0.00177041 0.0027517 -0.00507119)
(-0.00160083 0.00400156 -0.00454347)
(-0.012448 0.00840997 -0.00200272)
(-0.00207774 0.00352733 -0.000729746)
(-0.00554098 0.0102399 0.00337199)
(-0.00509916 0.00638045 -0.000860194)
(-0.0127501 0.00396419 -0.00211601)
(-0.00441364 -0.00333693 -0.00572649)
(-0.00360984 0.000393482 -0.00390333)
(-0.0140897 0.00509024 -0.00136339)
(-0.0147747 0.00591469 -0.000952499)
(-0.00428547 0.00615678 -0.00320133)
(-0.0230457 -0.00349882 -0.00178092)
(-0.0280218 0.00127971 -0.00073264)
(-0.0283007 -0.00299849 -0.000334534)
(-0.00446874 -0.00867514 0.00118497)
(-0.025239 -0.00572706 -0.00272462)
(-0.00292781 -0.000547068 0.00277598)
(-0.00189358 0.000734888 0.00207231)
(-0.00456775 0.0063679 -0.000273226)
(0.000637693 0.00189212 -0.00278309)
(-0.0111915 0.0121514 -0.00194544)
(-0.0133042 -0.00623331 0.000112883)
(-0.0160945 -0.00420057 -0.00265074)
(-0.0191597 0.000917376 -0.00500471)
(-0.00752748 0.00751577 -0.00108577)
(-0.0245665 0.00907805 0.00205887)
(-0.00589559 0.00405403 0.000402857)
(-0.0247621 0.00379831 -0.000207865)
(-0.0239807 -0.00132884 -0.00141389)
(-0.0280196 0.000463775 -0.000926742)
(-0.0158467 -0.00437881 -0.00503836)
(-0.0255446 -0.00697991 -0.00387459)
(-0.0178374 -0.00851595 -0.00506699)
(-0.0216425 -0.00605359 -0.00356826)
(-0.0156516 0.00541956 0.00253278)
(-0.0100333 0.00335522 0.00136474)
(-0.0102144 0.00269815 0.00129023)
(-0.0115253 0.00261535 -0.000659438)
(-0.0132113 0.00162383 -0.000641965)
(-0.0029329 -0.000217217 -0.000298914)
(-0.00878809 0.00252225 0.00127734)
(-0.00683143 0.00572379 -0.00241841)
(-0.00674705 0.00561955 -0.0024217)
(-0.00465176 -0.000490596 -0.000603805)
(-0.00539436 -0.000645204 -0.000697471)
(-0.00801505 0.00189492 0.00119567)
(-0.00674646 -0.00133984 -0.000711202)
(-0.0102489 0.00321874 0.000619964)
(-0.00683577 -0.00127197 -0.000862007)
(-0.00660105 -0.00114836 -0.000997972)
(-0.00959736 0.00283303 0.000601856)
(-0.00628044 -0.00080678 -0.0011471)
(-0.00295954 0.000239664 3.33735e-05)
(-0.00856867 0.000711503 -0.000598194)
(-0.0107663 0.000724455 0.00119102)
(-0.0162886 0.00361696 -0.00123456)
(-0.0107379 0.000838981 0.00147857)
(-0.012805 0.000786432 0.000349044)
(-0.0116353 0.000847664 0.00138078)
(-0.015367 0.00308793 -0.000980674)
(-0.00285151 0.000179766 -0.000536775)
(-0.0165321 0.00349775 -0.00118927)
(-0.0129506 0.00305493 0.00051375)
(-0.0160996 0.00333384 -0.00158504)
(-0.00183222 0.00230001 -6.78048e-05)
(-0.00285106 0.00323154 -0.000335206)
(-0.00285106 0.00323113 -0.000335187)
(-0.0108035 0.00695521 0.00346474)
(-0.00304611 0.00335947 -0.000616942)
(-0.00163855 0.00140366 0.00021588)
(-0.00926447 0.000868417 0.00117524)
(-0.00482576 0.0047784 -0.00170806)
(-0.00135824 0.000725742 0.00011492)
(0.000218233 -0.000204125 0.000489515)
(-0.0215366 -0.000409449 -0.00183308)
(-0.0100607 0.00445264 0.00415192)
(-0.00633901 0.00420944 0.00383877)
(-0.0121659 0.00379164 0.000741969)
(-0.0117398 0.00332905 0.000778952)
(-0.0129046 0.00299422 0.000561616)
(-0.0083121 0.000459165 0.000680123)
(-0.00409714 0.000533859 -6.5962e-05)
(-0.0122366 0.00240375 0.000527195)
(-0.0125021 0.00289194 0.000568121)
(-0.00896082 0.000983945 0.00103413)
(-0.0113795 0.00274373 0.000860589)
(-0.0130012 0.00276878 0.000699498)
(-0.00526636 0.00121405 0.00115977)
(-0.0120674 0.00276411 0.000550254)
(-0.00406714 0.000257832 -0.000358991)
(-0.0110552 0.000639708 0.000576514)
(-0.0144264 0.000512436 0.000578854)
(-0.0104343 0.0082264 -0.00606871)
(-0.0130654 0.00276924 -0.000762623)
(-0.0134147 0.00388013 0.00123509)
(-0.0140166 0.0039083 0.00129541)
(-0.0110623 0.00279922 0.00116247)
(-0.00259581 -0.00019543 0.00041048)
(-0.00269594 -0.000258233 0.000316476)
(-0.00636273 0.00108443 0.00092219)
(-0.00335736 -0.000143031 0.000599564)
(-0.00908134 0.00202167 0.00112456)
(-0.0114218 0.00330403 0.000940408)
(-0.00344333 5.8824e-05 0.000528143)
(-0.00885821 0.00203971 0.00122023)
(-0.00278939 0.00296051 -0.000226649)
(-0.00929473 0.00675179 0.00512758)
(-0.00226707 0.00218412 -4.14959e-05)
(-0.00259938 0.0030952 -6.26609e-05)
(-0.00355306 0.00389137 -0.000473883)
(-0.00355547 0.00389039 -0.000474163)
(-0.00282263 0.0029677 -0.000450242)
(-0.00366363 0.0041415 -0.000541767)
(-0.00366323 0.00414247 -0.000541717)
(-0.0171365 0.00379783 0.00253989)
(-0.00676743 0.00477658 -0.00271513)
(-0.00294673 0.00315934 -0.000353636)
(-0.00263499 0.00323559 -7.99346e-05)
(-0.00202974 -0.000189849 0.000119995)
(-0.00255439 -0.000271758 0.000163951)
(-0.00171907 0.00149053 -5.60701e-05)
(-0.00629406 -7.26288e-05 0.000468807)
(-0.00600527 -0.000832448 -0.000594295)
(-0.00390512 -0.000558238 0.000206274)
(-0.00585533 -0.000735925 -0.000597303)
(-0.00665222 0.000360749 0.000864447)
(-0.00416769 -0.000330489 0.00030964)
(-0.00557089 -0.000752411 -0.000385402)
(-0.0183813 0.00431395 0.00225232)
(-0.0122259 0.0027658 0.00143376)
(-0.0131198 0.00310367 0.0017084)
(-0.00262432 0.00199716 0.000462537)
(-0.00262479 0.00199759 0.000462643)
(-0.00184087 0.00155832 0.000360029)
(-0.00255958 0.002137 0.000497593)
(-0.00767111 5.61294e-05 0.00123691)
(-0.00752507 0.000449903 0.00051865)
(-0.00886252 0.000841458 -0.000550067)
(-0.00446195 0.00115062 -0.000278615)
(-0.00573782 0.000242346 0.000336546)
(-0.00608832 0.00141808 -0.000318619)
(-0.00888419 0.000541535 -0.000457983)
(-0.00743396 0.000194931 0.00028474)
(-0.00972275 0.000685992 -0.000173248)
(-0.0155611 0.00297962 0.000120807)
(-0.00584978 0.00513883 -0.00123397)
(-0.0158292 0.00324226 5.35877e-05)
(-0.00725009 0.00121191 -0.000277292)
(-0.00132016 0.00637815 -0.000451219)
(-0.0137479 0.00132782 0.000421272)
(-0.00107955 0.000648827 2.05879e-05)
(-0.00123635 0.000932216 3.06698e-05)
(-0.00225607 0.00166075 -0.0019297)
(-0.013848 0.00138601 0.000338703)
(0.000163853 -0.000195461 -0.000388336)
(-0.00240898 0.00155359 -0.00142079)
(-0.0148888 0.00296704 -0.000133543)
(-0.00942534 0.00178239 0.00011482)
(-0.00815395 0.00169306 0.000144992)
(-0.0150552 0.00313269 -0.000139098)
(-0.00862121 0.00195038 0.000130415)
(-0.00911953 0.00154553 0.000241103)
(-0.00434387 0.000798647 -0.000853053)
(-0.00624567 0.00120832 -0.000870443)
(-0.0119321 0.00225028 -0.00340391)
(-0.0184899 0.00223475 -0.00103138)
(-0.0221661 1.26107e-05 -0.00167673)
(-0.0085415 -0.00197559 0.000729702)
(-0.0225407 -0.000463128 -0.00181536)
(-0.0164122 0.00144806 -0.000690372)
(-0.00912696 -0.00133298 0.00065203)
(-0.0227418 -1.17903e-05 -0.00169474)
(-0.00695243 0.00563788 -0.000814393)
(-0.0167727 0.00206966 -0.000832056)
(-0.0086218 0.00247406 0.000414712)
(-0.00366755 0.00287238 -0.000230224)
(-0.0108452 0.00171221 0.000615508)
(-0.0146035 0.0012141 -0.000403765)
(-0.0061853 0.00504617 -0.000744191)
(-0.00763835 -0.00212139 0.00184175)
(-0.00107617 0.00341132 0.000736621)
(-0.00878789 -0.00146697 0.0017218)
(-0.00256386 0.00622398 -0.00554027)
(-0.0050076 0.0130303 -0.00698954)
(-0.0124375 0.000687234 0.00019341)
(-0.0139876 0.00109299 7.36027e-05)
(-0.0135563 0.000789976 0.000596435)
(-0.0130935 0.000886152 -0.000379362)
(-0.0099365 0.00335894 -0.00283736)
(-0.0130658 0.00423227 -0.00231999)
(-0.0134671 0.00399459 -0.00620712)
(-0.0100679 0.00307991 -0.00338738)
(-0.0314321 0.0092508 0.00610549)
(-0.00589656 0.00522729 -0.000530807)
(-0.00523804 0.00607571 5.06294e-05)
(-0.0112144 0.00831016 -0.00679569)
(-0.00813526 0.00641915 0.000382283)
(-0.0106541 0.00907977 0.00143388)
(-0.0113346 0.00621016 0.00394189)
(-0.00966579 0.00732272 -0.00368178)
(-0.0122765 0.00312268 0.000974879)
(-0.010253 0.00353151 -0.0036091)
(-0.00589821 0.00418445 -0.00131654)
(-0.00865934 0.00297913 -0.00309808)
(-0.00686575 -0.00021072 0.00142776)
(-0.00465885 3.99368e-05 1.41366e-05)
(-0.0051709 -0.000148921 -0.000262694)
(-0.00973631 0.00219706 0.0011508)
(-0.0116588 0.00311739 0.00119097)
(-0.0114495 0.00282909 0.00107819)
(-0.00865895 0.0110394 0.00800003)
(-0.0093361 0.0021115 -0.000812043)
(-0.0088312 0.00151644 -0.000790403)
(-0.0093079 0.00249469 0.000651416)
(-0.0062098 -0.000837228 9.51171e-05)
(-0.0135342 0.00184844 -0.000637883)
(-0.0219961 -0.00575948 0.00322339)
(-0.0116941 0.003122 0.00216522)
(-0.0105878 0.00292813 0.00178527)
(-0.0147684 0.00399047 0.00163166)
(-0.00197127 -5.79015e-05 1.91782e-05)
(-0.00196412 -5.71561e-05 1.66291e-05)
(-0.00261605 -0.00028206 -8.94816e-05)
(-0.00208809 -0.000291305 0.000181822)
(-0.0102933 0.00280444 0.00130077)
(-0.00673875 0.00134586 0.000927773)
(-0.00851014 0.00211314 0.00118355)
(-0.00979654 0.0030266 0.00123493)
(-0.00662945 0.00158072 0.00103519)
(-0.00817974 0.00236386 0.00111909)
(-0.0058177 0.00587507 0.00112428)
(-0.0050253 0.00553209 -0.000696253)
(-0.00606574 0.0058278 0.00130068)
(-0.0165406 0.00553479 0.00497682)
(-0.00594115 0.00602116 0.00114534)
(-0.00605389 0.00667165 -0.000880459)
(-0.00519915 0.00563583 -0.000572757)
(-0.00682748 -0.000762004 -0.00145592)
(-0.00301425 -7.71747e-05 -0.000483785)
(-0.00401874 -0.00066354 -0.000182932)
(-0.00781935 -0.000256762 -0.00123524)
(-0.00711285 -0.000851569 -0.000794443)
(-0.00754855 0.00133965 0.00105182)
(-0.00582887 0.000987245 0.000934754)
(-0.00557373 0.000568678 0.000757922)
(-0.0101948 -0.00187815 1.89707e-05)
(-0.0103405 -0.00172517 -0.000167927)
(-0.0125375 0.00311891 0.0016675)
(-0.00815987 0.00231636 0.000694683)
(-0.0134689 0.00425728 0.00127562)
(-0.007888 -0.00170549 -0.000120299)
(-0.00716135 -0.00190065 -0.000817974)
(-0.00645689 -0.00126659 -0.000749468)
(-0.00555101 -0.00055136 -0.000886722)
(-0.00785135 0.00187276 0.000370076)
(-0.0083133 0.00196214 0.000632854)
(-0.0148185 0.00840321 0.00527487)
(-0.0107917 0.00709029 -0.00174737)
(-0.0101444 0.00612301 0.00310568)
(-0.0100552 0.00764805 -0.000741742)
(-0.0151074 0.0013193 -0.00535254)
(-0.0091578 0.00106735 -0.000369058)
(-0.00282484 0.00029855 2.4472e-05)
(-0.00362784 0.000328139 0.000175121)
(-0.00361552 0.000499816 0.000284797)
(-0.0086873 0.000782593 -0.00031552)
(-0.00912374 0.000490342 -0.000384237)
(-0.00932002 0.0007341 -0.000109863)
(-0.0134107 0.00147907 0.000809653)
(-0.0145388 0.00729773 0.00218233)
(-0.0158909 0.00352455 -0.000363184)
(-0.0168268 0.0023621 9.18358e-05)
(-0.0098962 0.00377218 -0.00159051)
(-0.0117465 0.00118899 0.000586757)
(-0.0091624 0.00105853 0.00142332)
(-0.0134534 0.00101507 0.000241104)
(-0.0102527 0.0011772 0.00200004)
(-0.00961423 0.000820986 0.00187514)
(-0.00880506 0.00766706 -0.00553585)
(-0.0135887 0.00206088 0.000340392)
(-0.0150118 0.00172601 0.000455061)
(-0.0153762 0.00318249 -0.000229441)
(-0.0142708 0.00231743 -0.000272788)
(-0.01253 0.00252322 -9.29401e-06)
(-0.0026972 0.000227771 -0.0005644)
(-0.0176552 0.00240845 -0.0022809)
(-0.0220437 0.0033898 -0.0014635)
(-0.0168375 -0.00471906 0.000449777)
(-0.0134812 -1.44831e-05 0.000230564)
(-0.0109257 0.000238687 0.000630369)
(-0.0139668 -4.9841e-05 0.00036197)
(-0.0127903 0.00285066 0.000453802)
(-0.0130503 0.00289513 0.000447867)
(-0.0150468 0.0114514 0.00197387)
(-0.00797695 0.00528965 0.00179914)
(-0.0118289 0.000643231 0.00048426)
(-0.00687759 -5.41717e-05 -0.000897439)
(-0.00965215 0.000485455 -0.000430695)
(-0.0144573 0.0023911 -0.000554867)
(-0.0167395 0.00289984 -0.00225206)
(-0.0142254 0.00729359 0.00639538)
(-0.00455115 0.00175274 -0.00720279)
(-0.0141134 0.00211667 -0.000744027)
(-0.00945571 0.00347069 -0.000783702)
(-0.00715366 0.00212986 -0.000549406)
(-0.00875985 0.00305606 -0.000803033)
(-0.00825855 0.00281709 -0.000528222)
(-0.0342653 0.013218 -0.00218741)
(-0.0175706 0.00642978 -0.00128831)
(-0.0134214 0.0048074 -0.00184326)
(-0.0158764 0.00427064 -0.00569961)
(-0.00259449 0.00299063 0.000181504)
(-0.00131568 0.00152849 -5.17011e-05)
(-0.00182954 0.00209457 8.28439e-05)
(-0.00309696 0.00382138 0.000125194)
(-0.00149921 0.00148271 -3.74254e-05)
(-0.00302134 0.00329632 -0.000218442)
(-0.00332477 0.00358201 -0.000561791)
(-0.0118231 0.0101161 0.00141134)
(-0.0035329 0.00277524 0.000364346)
(-0.00619284 0.00494742 -0.000157964)
(-0.00603892 0.00497963 0.00011924)
(-0.00428113 0.00325264 3.77108e-05)
(-0.00428155 0.00325145 3.73823e-05)
(-0.00394447 0.0030186 -0.000126843)
(-0.00394601 0.00301767 -0.000127335)
(-0.00933828 0.0073599 0.000321659)
(-0.00323769 0.00245589 0.000214749)
(-0.00303327 0.00231792 7.15541e-05)
(-0.00598573 0.00445044 -0.00213234)
(-0.00110191 0.000602806 0.0001091)
(-0.000982163 0.000598984 9.48437e-05)
(-0.000506038 0.000197923 8.86468e-05)
(0.000691983 0.000628097 0.000992162)
(-0.000559899 0.000152533 0.000239037)
(0.000457695 7.16481e-05 0.000411204)
(-0.000344957 0.000253061 0.000216077)
(-0.00870366 0.00865521 -0.00275708)
(-0.00543962 0.00520244 -0.000815598)
(-0.00544127 0.00520024 -0.000815556)
(-0.0161907 0.00137775 -0.00286177)
(-0.0188421 -0.000883538 -0.00186407)
(-0.0182065 0.00104589 -0.00274565)
(-0.0212383 -0.00143889 -0.00249449)
(-0.00294049 0.00225036 -0.000262068)
(-0.0029416 0.00224889 -0.000261976)
(-0.014012 0.00285595 0.00185909)
(-0.023727 0.00295666 0.00273254)
(-0.012607 0.00314644 0.000646808)
(-0.00535291 -7.0842e-05 0.00112679)
(-0.00399485 -2.07267e-05 0.000174295)
(-0.00831971 -0.000164978 0.00203714)
(-0.00664686 3.89899e-06 0.00159296)
(-0.00622899 -6.69911e-05 0.00120771)
(-0.00393988 0.000111028 0.000249594)
(-0.00952684 -0.00024736 0.00198414)
(-0.0086001 0.00464642 0.00425103)
(-0.0105099 0.00255408 0.00113301)
(-0.00335296 0.00376897 -0.00051649)
(-0.0120501 0.00267351 0.00161187)
(-0.00419602 0.00459188 -0.000499706)
(-0.00419743 0.00459076 -0.000499832)
(-0.014188 0.00281005 -0.00470448)
(-0.0119441 0.00283667 -0.00420841)
(-0.00862511 0.00144933 0.000868612)
(-0.0117598 0.00305864 0.000856832)
(-0.0090204 0.00144517 0.000898974)
(-0.0111243 0.00220142 0.0010461)
(-0.0188155 0.00349654 -0.00564899)
(-0.00631363 -0.000177745 0.000263548)
(-0.0102052 0.00114005 0.000563096)
(-0.00780958 0.000409713 0.000195891)
(-0.00386452 1.16005e-05 -0.000639627)
(-0.00660016 0.00113044 0.000130971)
(-0.005851 0.000433728 -0.000243306)
(-0.0115543 0.00182135 0.000473944)
(-0.0100396 0.00183729 0.00030334)
(-0.0091833 0.0011687 0.000133188)
(-0.00925113 0.00162797 0.00101702)
(-0.0111124 0.00170412 0.000931844)
(-0.0112586 0.00233427 0.000939723)
(-0.0119642 0.0031106 0.00100863)
(-0.0118923 0.00298688 0.000776637)
(-0.0121784 0.00308804 0.000913773)
(-0.0125332 0.00234133 0.000750843)
(-0.0125013 0.00295956 0.000676115)
(-0.0124134 0.00279758 0.000767564)
(-0.00741932 0.00165143 0.000902684)
(-0.00814432 0.00213609 0.00159893)
(-0.0103155 0.00224598 0.000531161)
(-0.00776928 -0.00035686 6.36907e-05)
(-0.00907841 -0.000397546 1.00061e-05)
(0.000157633 0.00024303 0.0026707)
(-0.0210475 -0.0126348 -0.00761442)
(0.000561964 -0.000207557 0.000743184)
(-0.00428032 -0.00271083 0.00216591)
(-0.00468811 -0.0032853 0.00246477)
(-0.016983 -0.00129088 -0.00108782)
(-0.0162887 -0.000516474 0.000929384)
(-0.015095 6.41101e-06 0.00107581)
(-0.0140089 0.00103215 0.000886539)
(-0.0153913 0.000779299 0.000807617)
(-0.021135 -0.00880265 -0.00886825)
(-0.00740306 0.00386469 6.82971e-05)
(-0.00634548 0.0016814 -0.00104028)
(-0.00602758 0.00147691 -0.000644658)
(-0.00780692 0.00241946 -0.000926104)
(-0.00490844 0.000978769 -0.000623884)
(-0.00549984 0.00079632 -1.51437e-05)
(-0.00566326 0.00115186 -0.000357254)
(-0.00944826 0.00273057 -0.00056706)
(-0.00486802 0.000604097 -0.000169092)
(-0.00421722 0.000425512 -0.000136944)
(-0.00491948 0.000806417 -0.000399183)
(-0.00443215 0.000578416 -0.000285314)
(-0.00455442 0.000556292 -0.000253014)
(-0.0101214 0.00249187 -0.000730566)
(-0.00883618 0.0015148 -0.000738649)
(-0.00982519 0.00207406 -0.000727799)
(-0.00943883 0.00170521 -0.00160804)
(-0.00626679 0.000588973 -0.00108314)
(-0.0109421 0.00180217 -0.000793555)
(-0.00690216 -0.000540145 -0.000290394)
(-0.00706997 -0.000619798 2.68704e-05)
(-0.00842617 -1.10792e-05 -0.00036577)
(-0.0142299 0.0011255 -0.000871449)
(-0.0133169 0.00118192 -0.000433328)
(-0.0144147 0.00044178 -0.000704747)
(-0.012206 0.0133677 0.00299714)
(-0.0122703 0.00328033 0.00228167)
(-0.01826 0.00559148 0.00532439)
(-0.0139692 0.00331858 0.00232659)
(-0.0134848 0.00348424 0.000997953)
(-0.0154695 0.00427307 0.00132927)
(-0.0123787 0.00299384 0.00189791)
(-0.0151244 0.0043971 0.000861605)
(-0.0150681 0.00419976 0.00138027)
(-0.0124702 0.00326545 0.00115515)
(-0.0121935 0.00322724 0.000981178)
(-0.0128082 0.00330494 0.000897136)
(-0.00210585 -0.000234284 0.000377405)
(-0.00330312 -8.94149e-05 0.000424721)
(-0.00260014 -0.000283688 0.000346615)
(-0.00248013 -0.000336486 0.000100047)
(-0.00300743 -0.000172684 0.000504431)
(-0.00237301 -0.000361429 0.000301787)
(-0.00437318 0.000298119 0.000542898)
(-0.00448966 0.000195953 0.000715782)
(-0.00315004 -0.000233373 0.000400223)
(-0.0112808 0.00351745 0.00111546)
(-0.0126632 0.00346021 0.00117898)
(-0.0106434 0.00293251 0.00120545)
(-0.00448771 0.000375925 0.000711167)
(-0.00489619 0.000247914 0.000810782)
(-0.00653548 0.00106876 0.00095559)
(-0.0111246 0.00283216 0.00125036)
(-0.0068485 0.00104504 0.000936035)
(-0.00892809 0.00201404 0.00113125)
(-0.010853 0.00337582 0.000996782)
(-0.0115001 0.00326406 0.00104389)
(-0.0101019 0.00302016 0.00103498)
(-0.00475535 0.00064511 0.000760429)
(-0.00436259 0.000431455 0.000739377)
(-0.00625001 0.00138748 0.000935551)
(-0.0106776 0.00282729 0.00122151)
(-0.0066803 0.0011286 0.00100943)
(-0.00872107 0.00220469 0.00108571)
(-0.0021959 0.00247782 0.00017292)
(-0.00328914 0.0036814 7.02167e-05)
(-0.0105773 0.00567363 0.0057294)
(-0.00538358 0.00572736 0.000633267)
(-0.00300282 0.00350453 -0.00014183)
(-0.00696748 0.00350684 0.00264092)
(-0.00245206 0.00283406 0.000144933)
(-0.00238539 0.00252187 -0.000472912)
(-0.00325575 0.00364443 -0.000339091)
(-0.00336834 0.00396564 -0.000169063)
(-0.00334244 0.00367158 -0.000158655)
(-0.00490036 0.00538647 -0.000492714)
(-0.00344848 0.00382655 -0.000341684)
(-0.00584894 0.00596324 0.000359751)
(-0.00312743 0.00352985 -0.000396294)
(-0.00312906 0.00352886 -0.000396526)
(-0.0171939 0.00522126 0.00482586)
(-0.00510045 0.00511321 0.000259027)
(-0.00541383 0.00578359 0.000546737)
(-0.0104631 0.00353998 0.00307737)
(-0.00866792 0.00294818 0.00230314)
(-0.0097063 0.00323523 0.00309751)
(-0.00591782 0.00673252 -0.000651314)
(-0.00641034 0.00689116 -0.000769436)
(-0.00694513 0.00719758 0.000463787)
(-0.0129964 0.0039794 0.00379707)
(-0.0067944 0.00616816 0.00114195)
(-0.0105389 0.0034476 0.00359563)
(-0.00400469 0.00449614 -0.000388011)
(-0.00400319 0.00449853 -0.000388321)
(-0.00292258 0.00347293 -0.000370127)
(-0.00398275 0.00451936 -0.000206661)
(-0.00360516 0.0040383 -8.4111e-05)
(-0.0110248 0.00979108 -0.00448407)
(-0.00196714 -0.000218632 2.6661e-05)
(-0.00247093 -0.000169482 -4.64123e-05)
(-0.00702177 -0.000285139 -0.0017924)
(-0.00963841 -0.000120383 -0.00234241)
(-0.00307985 9.88096e-05 0.000391426)
(-0.00267688 -0.000326209 0.000184682)
(-0.0124292 0.0102449 0.000410065)
(-0.00672483 0.00566814 0.000866808)
(-0.010387 0.0068344 0.00324993)
(-0.00328983 0.00253491 0.000174729)
(-0.00291244 0.00227599 0.000349933)
(-0.00501473 -0.000464297 1.20865e-07)
(-0.00644122 -0.000628539 0.000186031)
(-0.00613554 -0.000762764 -4.82703e-05)
(-0.00376773 -0.000671108 -8.07069e-05)
(-0.0049938 -0.000754499 -1.75307e-05)
(-0.00639288 -0.000803207 -0.000480287)
(-0.00760274 -0.000927476 -0.00086118)
(-0.00525351 -0.000811539 -6.04891e-05)
(-0.00691119 -0.000929221 -0.000753179)
(-0.00699662 0.000847742 0.000892114)
(-0.00507641 -2.57495e-05 0.00048276)
(-0.00526115 0.000241748 0.000615736)
(-0.00430564 0.00030369 0.000600288)
(-0.00487709 -0.000621858 0.000113736)
(-0.006074 0.000198502 0.000547485)
(-0.0058231 -0.000359949 0.000208042)
(-0.00499705 -0.000670419 8.52282e-05)
(-0.00589582 -3.70258e-05 0.000443774)
(-0.00999074 0.00310442 0.00228131)
(-0.0195712 0.00543788 0.00136274)
(-0.0140821 0.00338971 0.00188094)
(-0.0154194 0.00427291 0.00118296)
(-0.013566 0.00326405 0.00178179)
(-0.0198305 0.00568352 0.00124331)
(-0.0167388 0.00474493 0.00117413)
(-0.0146444 0.00379295 0.00163332)
(-0.00883394 0.00175858 0.00212413)
(-0.0138279 0.00416357 0.00136471)
(-0.0157466 0.0046222 0.0011718)
(-0.0146126 0.00521007 0.00167658)
(-0.0169825 0.00497598 0.00117516)
(-0.0187028 -0.00338486 0.000339776)
(-0.0117013 -0.00294963 -0.000727479)
(-0.00701466 -0.00147823 -0.00107873)
(-0.00675533 6.85494e-05 -0.00172962)
(-0.0110276 -0.00260001 -0.00145142)
(-0.0153371 0.00145906 -0.00447517)
(-0.00865555 0.000897937 -0.00177136)
(-0.0145154 0.000697158 -0.00346227)
(-0.00321723 0.00244336 8.0635e-05)
(-0.0123455 0.00665455 0.00412143)
(-0.00946422 0.00766621 0.000927905)
(-0.00331335 0.00249428 8.95376e-05)
(-0.00217941 0.00168866 0.000505882)
(-0.0105718 0.00784473 -0.000157076)
(-0.0083692 0.000782666 -0.00168258)
(-0.00229928 0.00188072 0.000483953)
(-0.0039791 0.00295921 0.000279742)
(-0.00397961 0.00295962 0.000279785)
(-0.00695943 -0.00133442 -0.00037062)
(-0.00494776 -0.00030921 -3.25209e-05)
(-0.00564044 -0.000698137 -0.000790134)
(-0.0108298 0.00696262 -0.0014659)
(-0.00553307 -0.000507243 -0.000456714)
(-0.00562165 -0.000387938 -0.000904927)
(-0.00380814 0.00308411 0.000366098)
(-0.00899908 0.00675509 -0.000348039)
(-0.00929312 0.00705982 -0.000666539)
(-0.00822065 0.00539702 -0.00108601)
(-0.00655273 -0.000784234 -0.000176293)
(-0.0035009 0.00254984 7.56841e-05)
(-0.00368542 0.00274108 -1.81254e-05)
(-0.00368426 0.00274216 -1.85218e-05)
(-0.0066397 -0.000897122 -0.000416366)
(-0.00785313 0.00520918 -0.00090921)
(-0.00360917 0.00283605 -5.50901e-05)
(-0.0080807 0.00645704 0.0010168)
(-0.00682897 0.00074278 0.000772753)
(-0.00512601 -0.000202187 0.000176996)
(-0.00790296 0.00101974 0.000670592)
(-0.00697473 -0.000615961 -2.49873e-05)
(-0.00677359 0.000332603 0.000334888)
(-0.00549597 -0.000408336 -0.0001881)
(-0.00686897 -0.000896814 -0.000203185)
(-0.0060057 -2.4245e-06 0.000373844)
(-0.00286517 0.00230512 0.000144158)
(-0.00888627 0.00648324 -0.000319169)
(-0.00878965 0.00676288 0.00139678)
(-0.00252226 0.0022028 0.000540088)
(-0.00466784 0.0037314 0.000624167)
(-0.00466653 0.00373227 0.000624322)
(-0.00466634 0.00373148 0.000624177)
(-0.0104348 0.00574342 0.00245533)
(-0.00416676 0.00356791 0.000739345)
(-0.0104953 0.00806305 -0.00059672)
(-0.0044894 0.00334909 0.00068933)
(-0.00700678 0.00562535 -0.00023708)
(-0.00965631 0.00141691 -0.00255013)
(-0.00404171 0.0029624 3.90765e-05)
(-0.00404124 0.00296259 3.89193e-05)
(-0.00330101 0.00239407 0.000231154)
(-0.00927369 0.00131845 -0.000259687)
(-0.00895818 0.000874575 -0.000411467)
(-0.00894567 0.000889046 -0.000388684)
(-0.00923693 0.00109635 -0.00035341)
(-0.00299632 0.000541539 -0.000128265)
(-0.00480936 0.00141169 9.32004e-05)
(-0.00443463 0.000318716 0.000239107)
(-0.00619722 0.000612309 0.000605797)
(-0.00466595 0.000609622 0.00046123)
(-0.00644144 0.000909695 0.000702597)
(-0.00495553 0.00104674 0.000532498)
(-0.00770419 0.00133015 -0.000403441)
(-0.00889219 0.000558757 -0.000277225)
(-0.00916765 0.00060969 -0.000217085)
(-0.00947892 0.000587527 -5.43408e-05)
(-0.00877202 0.000299773 -7.50461e-06)
(-0.00788676 0.00060051 0.000522445)
(-0.00909263 0.000667961 0.000223733)
(-0.0084377 0.000710288 8.92701e-05)
(-0.00803159 0.000725268 0.000598578)
(-0.00918944 0.000638134 0.000294594)
(-0.0141506 0.00196122 0.000531808)
(-0.0153152 0.0016901 0.000469173)
(-0.0121635 0.00106751 0.000779066)
(-0.0123949 0.00707274 -0.00751201)
(-0.0159538 0.0035539 -0.000209628)
(-0.0166074 0.00208493 0.000444809)
(-0.0171545 0.00267399 0.000157755)
(-0.0113116 -0.00296599 0.00243097)
(-0.0114746 0.00477149 0.00451154)
(-0.00704649 0.00153016 -0.000245148)
(-0.00926838 0.000663765 -0.000475258)
(-0.00145379 0.00271088 0.000945622)
(-0.00488539 0.00370712 0.00156448)
(-0.0135356 0.00107143 0.000511911)
(-0.0108065 0.000886013 0.00207823)
(-0.0103661 0.000617084 0.00193857)
(-0.00220706 0.00199709 0.00140267)
(-0.0103122 0.000791345 0.00244948)
(-0.00814246 0.000961712 0.00190141)
(-0.00420922 0.00502393 -0.000212763)
(-0.00489627 0.00465773 0.000767724)
(-0.000794828 0.000309725 0.000120781)
(-0.0015472 -8.71054e-05 0.000687427)
(-0.000556493 9.68776e-05 0.000274294)
(-0.00112467 -0.000330536 0.000744287)
(-0.00169483 -6.31959e-05 0.000827121)
(-0.000383858 0.00279499 0.00383941)
(-0.000769616 0.00425263 -0.000836304)
(-0.000134754 0.00243252 0.00414599)
(-0.00050932 0.00423894 -0.0020436)
(-0.00167837 0.00380899 0.00187466)
(-0.013858 0.000724407 0.000146123)
(-0.0107364 0.000988274 0.00184382)
(-0.00996655 0.00064997 0.00162341)
(-0.00870073 0.000808592 0.00169797)
(-0.00168324 -0.000111571 0.00117115)
(-0.00967942 0.000915295 0.00252742)
(-0.0024121 -0.001254 0.00649183)
(-0.00103918 -0.000223374 0.000811468)
(-0.0025926 0.00276067 0.00298185)
(-0.0106608 0.000881767 0.00243688)
(-0.010381 0.000718537 0.00239804)
(-0.00127459 0.00213671 -4.22913e-05)
(-0.00469561 0.00515759 -0.000176333)
(-0.00172059 0.00222226 -8.81909e-05)
(-0.00443048 0.00530327 -9.7532e-08)
(-0.00113376 0.0035401 0.000208146)
(-0.0142347 0.00239261 0.000153339)
(-0.0130163 0.0026069 4.4988e-06)
(-0.0116941 0.00238269 8.85408e-05)
(-0.0106999 0.00327602 -0.000276179)
(-0.0153733 0.00326973 -0.000197769)
(-0.0124122 0.00268002 8.95792e-06)
(-0.0121904 0.00261743 -7.69925e-05)
(-0.011446 0.00318898 0.000373623)
(-0.0114795 0.00242754 -5.48487e-05)
(-0.0111172 0.00248162 7.0124e-05)
(-0.00811412 0.00237445 3.02549e-05)
(-0.0109181 0.00252244 -5.45041e-05)
(-0.00330438 0.000288604 -0.00118515)
(-0.0123544 0.00508097 -0.00656937)
(-0.0160753 0.00186939 -0.000438557)
(-0.00879568 0.00632088 0.00241885)
(-0.00889616 0.00971719 -0.000697464)
(-0.0116912 0.00474429 0.00244272)
(-0.0126202 0.00654797 0.00466073)
(-0.0116286 0.00818234 0.00623075)
(-0.0168934 0.00190193 -0.00284017)
(-0.0174477 0.0012192 -0.00291808)
(-0.0195225 0.00277479 -0.00144078)
(-0.0184707 0.00136355 -0.00240873)
(-0.0228303 0.00294475 -0.00124757)
(-0.022535 -0.00222367 -0.00296924)
(-0.0191266 -0.00349998 -0.000934766)
(-0.00916806 -0.00433646 0.000381848)
(-0.00997366 -0.006745 0.00310791)
(-0.0150133 -0.00102368 -0.000693144)
(-0.0165119 -0.00364875 5.21932e-05)
(-0.0233248 -0.00222939 -0.00335655)
(-0.0167358 -0.000456188 -0.0010568)
(-0.0185874 -0.00260275 -0.000943027)
(-0.0132863 0.00269392 0.000313553)
(-0.0145463 0.00239095 -0.000156484)
(-0.0147131 0.00214941 -0.000152887)
(-0.0168901 0.00238518 0.00390765)
(-0.0138983 -0.000386105 0.000148917)
(-0.0220663 0.00143572 -0.00151831)
(-0.0144117 0.00040076 2.10634e-05)
(-0.0115307 -0.000406754 0.000827428)
(-0.0144648 -0.000448339 -0.000694427)
(-0.0137629 4.36678e-05 -9.2722e-06)
(-0.0160732 1.55948e-05 -0.00104941)
(-0.0145491 0.000544531 -0.000231568)
(-0.0132472 0.00659794 -0.0058965)
(-0.0167066 0.00262187 -0.00700249)
(-0.0124289 0.00477334 -0.00448704)
(-0.0121067 0.00359306 -0.00505331)
(-0.0143157 0.00143156 0.000159997)
(-0.0136688 0.0012749 -1.79799e-05)
(-0.00870567 0.00708511 -0.000343691)
(-0.00986244 0.00775639 0.000200681)
(-0.0129444 0.00253663 0.000236464)
(-0.0123501 0.00198825 -9.25569e-05)
(-0.0125223 0.00251066 0.000605739)
(-0.00414826 0.00330531 -0.000185626)
(-0.00674837 0.00550226 0.00107053)
(-0.0122899 -5.18517e-05 9.23862e-05)
(-0.0108021 0.000757458 0.000279515)
(-0.00913395 0.00125729 0.000199619)
(-0.00190953 0.00132263 -0.000320695)
(-0.0262542 -0.00463474 -0.00681266)
(-0.00810853 -0.00364339 -0.00573863)
(-0.00352046 0.0027209 -0.000400098)
(-0.0058691 0.000334806 -0.0032836)
(-0.00863941 0.00102947 -0.00085416)
(-0.00808931 -0.000204874 -0.0014387)
(-0.00683552 -7.50324e-05 -0.000670728)
(-0.00874485 0.00107383 -0.00103863)
(-0.00415506 0.00169483 0.00679407)
(-0.00549447 0.00471685 0.00569507)
(-0.0168814 0.00286277 -0.00193084)
(-0.0111784 0.00153603 -0.000934604)
(-0.0154185 0.00251064 -0.00177771)
(-0.0114977 0.00152358 -0.00140734)
(-0.0166678 0.00304412 -0.0021368)
(-0.00506941 0.00708351 -0.00258022)
(-0.0050375 0.00927571 -0.00141379)
(-0.00175032 0.00135411 0.000863693)
(-0.00167539 0.00145214 4.98757e-05)
(-0.00336416 0.00275234 0.00104004)
(-0.00587141 0.00485693 0.00101876)
(-0.0031944 0.00288411 9.05277e-05)
(-0.0070292 0.00366161 0.00329472)
(-0.0101212 0.000248066 0.000376373)
(-0.00516915 0.000254413 -0.000313234)
(-0.00771677 0.000224755 -0.000536063)
(-0.00541936 -0.000133159 0.000648816)
(-0.00470099 -5.95123e-06 -0.000216143)
(-0.00722775 -0.000579888 0.00125531)
(-0.0118225 -0.00213844 0.00200127)
(-0.0224413 0.00332426 0.00420379)
(-0.0213428 0.0038525 -0.00266708)
(-0.00206495 0.00230824 -0.0073632)
(-0.00208515 0.00200023 -0.00737882)
(-0.0023842 0.00253391 -0.00461769)
(-0.00195712 0.00412101 -0.00714976)
(-0.00199829 0.00240056 -0.00753106)
(-0.00826843 0.00414781 -0.00117264)
(-0.0142082 0.00976598 -0.00289163)