/*--------------------------------*- C++ -*----------------------------------*\
  =========                 |
  \\      /  F ield         | OpenFOAM: The Open Source CFD Toolbox
   \\    /   O peration     | Website:  https://openfoam.org
    \\  /    A nd           | Version:  10
     \\/     M anipulation  |
\*---------------------------------------------------------------------------*/
FoamFile
{
    format      ascii;
    class       volScalarField;
    location    "0.05";
    object      k;
}
// * * * * * * * * * * * * * * * * * * * * * * * * * * * * * * * * * * * * * //

dimensions      [0 2 -2 0 0 0 0];

internalField   nonuniform List<scalar> 
115093
(
0.0973246
0.097328
0.0973301
0.0973348
0.0973325
0.0973529
0.0973711
0.0974178
0.0973317
0.0973276
0.0973311
0.0973299
0.0973349
0.0973524
0.0973785
0.0974285
0.0973287
0.0973291
0.0973352
0.0973332
0.0973339
0.0973511
0.0973774
0.0974012
0.0973313
0.0973923
0.0973413
0.0973434
0.0973354
0.0973569
0.0973727
0.0974002
0.0974205
0.0973741
0.0973376
0.0973524
0.0973727
0.09739
0.0973354
0.0973489
0.0973846
0.0973447
0.0973634
0.0973741
0.0975422
0.0974592
0.0973477
0.0973997
0.097341
0.0973367
0.0973443
0.0973934
0.0974383
0.0973815
0.0973335
0.0974401
0.0973485
0.0973315
0.0973455
0.0973971
0.0974376
0.0974123
0.0975334
0.0977736
0.0976162
0.0973973
0.0973436
0.097395
0.0975554
0.0974167
0.0973501
0.0976696
0.0978092
0.0975168
0.0973956
0.097384
0.097372
0.0974025
0.0973706
0.0974762
0.0973611
0.0974109
0.0975516
0.0975199
0.0978407
0.0976777
0.0977033
0.0976201
0.0978075
0.0974484
0.0973763
0.0974818
0.0975277
0.097702
0.0973802
0.0977917
0.0977515
0.0977508
0.0977746
0.097451
0.0975592
0.097661
0.0977462
0.0973601
0.0973829
0.0974126
0.0978197
0.0981929
0.0978503
0.0975304
0.0975929
0.0978347
0.0975839
0.0973982
0.0973702
0.0974189
0.0978285
0.0979232
0.0975759
0.0974874
0.101463
0.102866
0.0987652
0.0976781
0.0974922
0.0978397
0.0979871
0.0976954
0.09744
0.0974772
0.0976826
0.103125
0.100862
0.0981972
0.0979987
0.0976802
0.0977384
0.0974321
0.0974051
0.09745
0.0979003
0.0997009
0.100742
0.0977917
0.0973315
0.0973453
0.0973974
0.0975838
0.0976813
0.0979153
0.0981214
0.0979907
0.0985025
0.0978584
0.0973674
0.0974207
0.0976501
0.0977459
0.098011
0.0978127
0.0976667
0.0977018
0.098086
0.098259
0.097383
0.0975467
0.0983353
0.103259
0.102339
0.102886
0.098828
0.0980244
0.0981692
0.0983755
0.097611
0.0982517
0.1033
0.101452
0.0981218
0.104514
0.10244
0.0984033
0.098096
0.0981415
0.0978217
0.10206
0.101626
0.0980229
0.0975923
0.0982096
0.102883
0.103683
0.10008
0.0980069
0.0996406
0.100927
0.0982688
0.0975145
0.0975421
0.0975269
0.105432
0.102553
0.10011
0.0979841
0.099145
0.0999483
0.099151
0.0977302
0.0975728
0.107781
0.103326
0.0986034
0.0975733
0.0974273
0.100177
0.101803
0.100664
0.0981256
0.107156
0.103778
0.0992941
0.0979034
0.0975299
0.0975198
0.097577
0.101473
0.10011
0.0997404
0.102944
0.0989195
0.0979162
0.0982149
0.0980028
0.0984914
0.0973354
0.0973627
0.0975863
0.0977432
0.0985689
0.103332
0.100269
0.105339
0.104375
0.0990196
0.0973636
0.0976021
0.0977572
0.0984835
0.101772
0.102399
0.0995031
0.0988185
0.103292
0.102952
0.097731
0.0986916
0.103499
0.101752
0.0985953
0.0998718
0.100069
0.0988149
0.0993701
0.101699
0.0985556
0.102533
0.101761
0.099845
0.102645
0.102314
0.100572
0.0982055
0.10283
0.102937
0.103226
0.10161
0.0993598
0.098696
0.0977826
0.0979801
0.107469
0.111853
0.103664
0.0983406
0.0985087
0.0990478
0.0983166
0.0978448
0.0976966
0.098029
0.100956
0.103813
0.101252
0.0985325
0.0989315
0.100935
0.0987493
0.0979222
0.0995564
0.10185
0.104877
0.100831
0.0995394
0.0978206
0.105593
0.100932
0.105849
0.0998781
0.0990575
0.10775
0.101093
0.09797
0.097476
0.0974252
0.101148
0.10406
0.101896
0.100354
0.107974
0.102134
0.0976708
0.0975841
0.0977102
0.0983053
0.0973831
0.0975652
0.0976751
0.0984675
0.101873
0.102475
0.0999767
0.0990767
0.103605
0.103657
0.0977704
0.0981823
0.0984522
0.100221
0.101382
0.100159
0.108727
0.117851
0.101257
0.117357
0.104019
0.0987843
0.102922
0.102778
0.0987944
0.100254
0.107146
0.104436
0.107416
0.104013
0.111881
0.10242
0.101306
0.10179
0.100521
0.104675
0.105654
0.1018
0.102375
0.117063
0.100495
0.11738
0.10394
0.102698
0.100982
0.104675
0.106759
0.10594
0.107169
0.102076
0.105323
0.104617
0.10275
0.100787
0.100338
0.1039
0.103238
0.102997
0.104546
0.110936
0.107057
0.116596
0.103479
0.0982034
0.0979347
0.103492
0.102703
0.106065
0.104717
0.104531
0.112491
0.109943
0.101679
0.0990528
0.0977143
0.0976461
0.101616
0.0968756
0.101514
0.107227
0.103881
0.108139
0.101408
0.0977261
0.0975643
0.097488
0.0974937
0.100826
0.107045
0.110262
0.101058
0.097447
0.0976794
0.097728
0.098292
0.0973875
0.0975277
0.0974583
0.0982139
0.101654
0.101119
0.101544
0.0988667
0.103614
0.103229
0.0977492
0.0979966
0.0982938
0.100351
0.100878
0.101976
0.103474
0.108845
0.107064
0.118772
0.102983
0.0987828
0.102758
0.101352
0.0989622
0.10244
0.103321
0.105569
0.0957446
0.129691
0.125046
0.103584
0.101346
0.102127
0.099973
0.103905
0.103525
0.101966
0.0739984
0.109059
0.106359
0.133323
0.102947
0.102971
0.100089
0.10367
0.101831
0.09561
0.0719557
0.0867919
0.129504
0.110164
0.102309
0.100302
0.0991406
0.103519
0.101621
0.097208
0.0687046
0.0765913
0.137762
0.123117
0.102447
0.0981345
0.0978849
0.100926
0.102054
0.0992276
0.0979469
0.093486
0.126817
0.108907
0.101382
0.0990179
0.0977136
0.0976287
0.0905067
0.0907609
0.0884078
0.0886407
0.127093
0.113381
0.101207
0.0977844
0.0975587
0.097479
0.0974777
0.0614374
0.119276
0.110779
0.101568
0.0974866
0.0979149
0.0978721
0.0983459
0.0973515
0.0974228
0.0976137
0.0985641
0.102329
0.10099
0.0998651
0.105821
0.105511
0.0986964
0.0973701
0.0975488
0.0980246
0.101333
0.100316
0.100617
0.101054
0.104648
0.107282
0.104021
0.100906
0.0976753
0.0983058
0.102295
0.10139
0.101047
0.10912
0.104705
0.109496
0.108922
0.131167
0.104993
0.0982584
0.1022
0.101707
0.101056
0.107668
0.102516
0.103729
0.105697
0.112427
0.104161
0.100898
0.10103
0.101847
0.105934
0.104082
0.100977
0.103243
0.133016
0.118957
0.104215
0.0982471
0.0983008
0.0996503
0.0999565
0.105943
0.100479
0.104034
0.126321
0.106899
0.102909
0.0996256
0.0977872
0.0976206
0.102727
0.102882
0.106346
0.100914
0.101477
0.130002
0.10961
0.103125
0.09794
0.0976977
0.0974992
0.0975212
0.101623
0.095811
0.104006
0.102314
0.11624
0.108092
0.102911
0.0987825
0.097598
0.0974856
0.0974901
0.0974884
0.0993291
0.0997868
0.100169
0.0983335
0.097338
0.0973678
0.0974852
0.0977764
0.0979508
0.0976252
0.0983085
0.0981004
0.0988536
0.0977593
0.0973819
0.097456
0.0977058
0.0989694
0.104027
0.101069
0.0997302
0.107054
0.106352
0.0986436
0.098433
0.0973798
0.0975133
0.0982275
0.103356
0.1005
0.0987537
0.0997197
0.0990177
0.108167
0.104567
0.100835
0.097599
0.0982204
0.103023
0.100283
0.0989005
0.098216
0.0990946
0.118746
0.105286
0.0984663
0.0984116
0.0981486
0.102241
0.100714
0.0984458
0.0983285
0.0980884
0.108532
0.10373
0.0999255
0.0976624
0.0976005
0.0985297
0.0985649
0.0984566
0.0979849
0.0982915
0.112175
0.103744
0.0980938
0.0978019
0.0975298
0.0975156
0.100011
0.0996862
0.0991164
0.100162
0.0984648
0.109353
0.103556
0.0988193
0.0975048
0.0974592
0.0974786
0.0974993
0.105069
0.101991
0.109106
0.0996581
0.10538
0.100831
0.098307
0.0976382
0.0974843
0.0974287
0.0974507
0.0974683
0.106609
0.103184
0.102957
0.0973285
0.09733
0.0973355
0.097386
0.0975136
0.0973925
0.0975668
0.097764
0.0980427
0.0973347
0.0973539
0.0974484
0.0976715
0.0976464
0.0974925
0.0979394
0.097915
0.0983428
0.0973675
0.0974141
0.0975462
0.0976001
0.0979608
0.0974372
0.0976268
0.0977261
0.0984657
0.0974004
0.0975133
0.0975399
0.0976925
0.0973927
0.0974106
0.0976108
0.0981429
0.0984291
0.0975375
0.0976058
0.0977733
0.0973882
0.0974042
0.0974078
0.0978703
0.0978534
0.0978367
0.0975056
0.0977745
0.0978045
0.0975865
0.097463
0.0977848
0.0977678
0.097459
0.0974632
0.0980349
0.101145
0.102643
0.0986119
0.0979762
0.0976349
0.0975849
0.0974774
0.0974566
0.0981214
0.0981602
0.102158
0.101265
0.098427
0.0975687
0.0974626
0.097326
0.09733
0.0973318
0.0973397
0.097349
0.0973888
0.0973993
0.097461
0.0974687
0.0973286
0.0973268
0.0973299
0.0973413
0.0973857
0.0973638
0.0974434
0.0975762
0.0977162
0.0973279
0.0973377
0.0973767
0.0974472
0.0973461
0.0973634
0.0974481
0.0976464
0.0977392
0.0973331
0.0973488
0.0973934
0.0973418
0.0973563
0.0973614
0.0974317
0.0975552
0.0977136
0.0973499
0.0974094
0.097334
0.0973367
0.0973523
0.0973944
0.0974441
0.0974238
0.0974108
0.0973295
0.0973395
0.097447
0.097356
0.0973528
0.0973867
0.0974961
0.0974758
0.0974673
0.0974212
0.0975048
0.0977314
0.0975639
0.0974238
0.0974012
0.0973727
0.097378
0.0973923
0.0973534
0.0973482
0.0976285
0.0978019
0.0973317
0.0973413
0.0973449
0.0973656
0.0973795
0.097416
0.0974361
0.0973289
0.0973308
0.0973424
0.0973505
0.0973682
0.0974073
0.097453
0.097333
0.0973433
0.0973409
0.0973578
0.0973723
0.0974226
0.0974411
0.0973374
0.0973342
0.0973377
0.0973516
0.0973648
0.0973992
0.0974338
0.0973292
0.097336
0.0973366
0.0973639
0.0973704
0.0973846
0.0974065
0.0974159
0.0973602
0.0973377
0.097347
0.0973671
0.097386
0.0974037
0.0982705
0.102241
0.0998677
0.10278
0.102618
0.103522
0.10267
0.103788
0.101264
0.100459
0.102166
0.101455
0.100869
0.103493
0.101645
0.0611873
0.105848
0.104303
0.10358
0.0995137
0.0927078
0.0673395
0.0986109
0.1009
0.101217
0.100986
0.101776
0.0995271
0.0528161
0.103149
0.101179
0.105818
0.0631816
0.0975102
0.104542
0.111651
0.102669
0.103583
0.0857831
0.0822615
0.0760852
0.103752
0.104813
0.103671
0.0983835
0.0832706
0.0608654
0.063326
0.104667
0.106381
0.10331
0.101246
0.0937311
0.0958496
0.103506
0.105118
0.101964
0.0945684
0.067356
0.0807294
0.10408
0.100264
0.101497
0.103521
0.100011
0.100795
0.103273
0.102041
0.100647
0.102064
0.101367
0.101389
0.100255
0.101301
0.0990323
0.0983102
0.0993303
0.0943838
0.0964127
0.10336
0.103158
0.101091
0.0969045
0.066647
0.0963109
0.106034
0.0997568
0.0779997
0.0728875
0.10248
0.0991007
0.102161
0.0870461
0.0974159
0.0926533
0.0850953
0.0965421
0.101086
0.0878015
0.0486858
0.100992
0.0999281
0.100044
0.0731946
0.0568401
0.101123
0.100537
0.0558759
0.0996522
0.10193
0.0682739
0.100332
0.0987095
0.0767204
0.0709535
0.0632403
0.100922
0.0999146
0.101883
0.0995208
0.0720649
0.0670765
0.0695027
0.107303
0.103285
0.106134
0.0974215
0.0658693
0.0820783
0.0995161
0.105123
0.103029
0.0944077
0.0902047
0.103146
0.104611
0.0899235
0.102284
0.103211
0.0988779
0.0896431
0.10172
0.0997355
0.105384
0.102103
0.102648
0.0955612
0.103925
0.0731853
0.100506
0.104692
0.101224
0.0956333
0.0867654
0.086438
0.0946585
0.0887964
0.0852487
0.0917993
0.0862248
0.0472824
0.096192
0.0911986
0.092708
0.051817
0.0942051
0.10045
0.0983611
0.0963054
0.0993238
0.0986862
0.0965349
0.101551
0.0881192
0.103186
0.102106
0.103154
0.0997645
0.103914
0.0998317
0.100885
0.101955
0.102677
0.0999309
0.102417
0.101763
0.10385
0.101875
0.0946089
0.103921
0.0992065
0.101285
0.0996626
0.10219
0.0978333
0.0976308
0.0978831
0.102363
0.103726
0.102281
0.102948
0.0977628
0.0977079
0.0978642
0.10218
0.102886
0.10237
0.103274
0.0977672
0.0989812
0.0981431
0.101926
0.1023
0.1033
0.0993829
0.102598
0.103026
0.102236
0.104244
0.100927
0.105307
0.10065
0.110731
0.10347
0.104499
0.105788
0.106722
0.107332
0.0853224
0.103225
0.104045
0.0984408
0.104109
0.103306
0.0985213
0.0836771
0.107695
0.102169
0.102944
0.0859383
0.109473
0.0847466
0.10417
0.104212
0.106623
0.102728
0.100262
0.0968683
0.098605
0.0647677
0.0705299
0.097922
0.10547
0.0995371
0.0985736
0.0900429
0.0810414
0.103254
0.109088
0.100692
0.0812469
0.0812087
0.0648026
0.102961
0.104013
0.107081
0.101857
0.0662199
0.0651593
0.0900182
0.0999523
0.0841227
0.0977579
0.10394
0.0763139
0.0945425
0.082612
0.0707125
0.102509
0.104348
0.107735
0.0830691
0.100909
0.103765
0.10287
0.0966508
0.0866807
0.0996495
0.0553173
0.0951127
0.0927767
0.100784
0.0905723
0.0988027
0.0993844
0.101864
0.0920687
0.0977521
0.0638596
0.0699074
0.0990919
0.103202
0.0952608
0.0991472
0.113005
0.0985091
0.0780997
0.100239
0.0993964
0.0995812
0.0832893
0.0827916
0.105718
0.107231
0.0803973
0.104896
0.116114
0.101314
0.10112
0.104545
0.0961715
0.0715113
0.103096
0.112202
0.099373
0.101983
0.104257
0.0720767
0.107959
0.100393
0.101212
0.104762
0.104183
0.0961739
0.0943047
0.065639
0.104569
0.103196
0.101685
0.10198
0.0848432
0.0895369
0.0648299
0.0975503
0.0992355
0.0938469
0.0680276
0.0721869
0.102628
0.102088
0.0990443
0.106345
0.101406
0.101043
0.095373
0.101223
0.103361
0.10076
0.105945
0.0903395
0.0850192
0.0906211
0.0965403
0.0753911
0.0865381
0.0958497
0.0740164
0.0870634
0.0993244
0.103626
0.0968649
0.106936
0.101641
0.094561
0.097819
0.10216
0.104242
0.105266
0.10404
0.0853985
0.0851874
0.065813
0.0980029
0.0938891
0.101688
0.0869319
0.0799886
0.101649
0.103234
0.102207
0.10554
0.100751
0.0861951
0.0635615
0.0866886
0.0642582
0.0803363
0.0637678
0.0904381
0.0987116
0.0777781
0.0534268
0.10195
0.0977551
0.0941149
0.0979215
0.0995889
0.102012
0.102324
0.101342
0.0980815
0.0979719
0.0976735
0.0980193
0.101489
0.10216
0.101588
0.0978458
0.0978731
0.0979113
0.0979744
0.0991626
0.107816
0.105648
0.101614
0.107576
0.105215
0.105084
0.103195
0.105564
0.105699
0.104562
0.103693
0.103611
0.101417
0.101377
0.103238
0.103462
0.100581
0.0990555
0.0984988
0.103717
0.100404
0.0859065
0.0872677
0.100072
0.0963591
0.0988467
0.086735
0.0980338
0.102955
0.100143
0.0979351
0.102758
0.0954468
0.105995
0.10211
0.105855
0.101277
0.0763151
0.0896554
0.101829
0.101293
0.103259
0.102666
0.103157
0.103084
0.100563
0.0996372
0.100039
0.099863
0.103767
0.111437
0.103317
0.101987
0.101862
0.0999882
0.099783
0.110591
0.104862
0.099807
0.0863881
0.0972627
0.100286
0.0876554
0.103187
0.101802
0.089637
0.0941915
0.103322
0.0931739
0.104383
0.10165
0.0872815
0.095908
0.0964801
0.100179
0.0950009
0.101551
0.0945845
0.100243
0.100556
0.100313
0.100489
0.100817
0.102118
0.100511
0.102031
0.102946
0.0947199
0.102136
0.0956777
0.10017
0.104599
0.102675
0.0943262
0.102659
0.0987257
0.0511764
0.0974768
0.09689
0.0967445
0.0994848
0.0892167
0.0638157
0.0986717
0.10058
0.0888456
0.0938343
0.100627
0.0614321
0.101046
0.0937732
0.0900169
0.0988239
0.104849
0.0963738
0.0575643
0.097904
0.103802
0.0816551
0.097335
0.102101
0.0950902
0.0634759
0.101239
0.0948583
0.0809626
0.0978834
0.101304
0.0590945
0.0635861
0.101993
0.0965339
0.0783133
0.0688344
0.105175
0.0975542
0.0836548
0.0986807
0.0797996
0.0595056
0.0667105
0.103326
0.0986153
0.077576
0.0986405
0.074063
0.058716
0.0961638
0.0948704
0.093366
0.0716992
0.0838319
0.099378
0.0551566
0.100303
0.0666658
0.0693492
0.0676965
0.0651299
0.070794
0.0541227
0.0654088
0.0638509
0.0967393
0.0693993
0.0871153
0.0809104
0.08432
0.0808302
0.0961626
0.0843622
0.0990352
0.104923
0.0946729
0.0988132
0.0893318
0.0937527
0.0820257
0.105118
0.0981645
0.0681531
0.0974678
0.0916823
0.0886311
0.0878453
0.103986
0.0984862
0.091327
0.0983904
0.0915595
0.0867428
0.0655454
0.093949
0.085496
0.0899125
0.0821719
0.0940467
0.0701642
0.0691896
0.0863972
0.0608757
0.0888095
0.0804256
0.0701594
0.0666834
0.0859299
0.088974
0.0759448
0.0706055
0.0819999
0.0637762
0.0795241
0.0767889
0.0921753
0.0979745
0.0995898
0.0592705
0.0997971
0.0614918
0.0902653
0.0920291
0.0586376
0.0645319
0.0908031
0.0643773
0.0991665
0.104096
0.0746837
0.0988065
0.086799
0.0691205
0.0659379
0.10422
0.0980077
0.0974467
0.069049
0.0657521
0.103432
0.098504
0.0826417
0.0982797
0.0627491
0.100519
0.0792834
0.0599049
0.0816991
0.0687252
0.0739903
0.0794216
0.0590667
0.0614148
0.0739312
0.101137
0.0777886
0.068983
0.0718376
0.0589352
0.0763908
0.0834281
0.0901068
0.0921766
0.0707413
0.094549
0.0829267
0.0805832
0.0830304
0.0943737
0.0688253
0.0928889
0.0784692
0.0971262
0.0870643
0.100445
0.0898688
0.10168
0.0876048
0.0883602
0.087924
0.0849589
0.0991085
0.101144
0.0878217
0.101295
0.0542993
0.0983844
0.104252
0.0846699
0.0984773
0.0978128
0.0895529
0.0860673
0.0863673
0.0907144
0.103029
0.0994269
0.10103
0.0839325
0.102105
0.0996982
0.103003
0.0995611
0.0980962
0.0947031
0.0842495
0.0974298
0.0999131
0.0870342
0.0658471
0.0981985
0.0905181
0.0602399
0.0655152
0.0591569
0.067124
0.079752
0.0906824
0.0914577
0.0634659
0.0678422
0.0620774
0.0922063
0.0938356
0.0656149
0.086881
0.0937958
0.0650623
0.0878582
0.0869839
0.0836199
0.0939918
0.0875392
0.0947399
0.0618253
0.0902602
0.0809207
0.097996
0.0828751
0.100832
0.0930544
0.0595959
0.102602
0.0702338
0.096523
0.0992186
0.102612
0.0963477
0.0530644
0.101903
0.0690923
0.0973109
0.102078
0.10202
0.055794
0.0533743
0.0930378
0.0678198
0.0978377
0.101628
0.0883199
0.0927223
0.0615273
0.0995038
0.0997144
0.0946806
0.0722472
0.0625694
0.103702
0.104134
0.090021
0.0750313
0.0579086
0.0867206
0.0807988
0.0924312
0.0886923
0.100311
0.106395
0.0975777
0.0948866
0.0952987
0.0985492
0.0999577
0.0864088
0.0703134
0.0954008
0.0747388
0.0987704
0.0943102
0.0909536
0.0892492
0.0535268
0.0966425
0.0736874
0.0971395
0.0990459
0.100173
0.0715777
0.0559608
0.0992238
0.0713354
0.0922333
0.100511
0.0976233
0.0994682
0.102
0.0991378
0.100472
0.0968422
0.101421
0.096285
0.0970868
0.101846
0.0980018
0.0966596
0.0919526
0.0929645
0.0849213
0.0713599
0.0969279
0.106611
0.099638
0.0834514
0.092565
0.106618
0.0707111
0.0974622
0.102884
0.0994445
0.0704376
0.0959766
0.103705
0.0739102
0.0970785
0.0717018
0.10759
0.0883416
0.108201
0.0752686
0.0963646
0.0977898
0.0692644
0.104757
0.091194
0.103627
0.0761158
0.0965994
0.0970332
0.108613
0.100015
0.070748
0.0916617
0.107874
0.0823769
0.0977184
0.070014
0.108077
0.0905397
0.107854
0.0775512
0.0964718
0.0988876
0.0914418
0.100959
0.0980535
0.105343
0.0832096
0.098858
0.0931133
0.0817085
0.0889691
0.0940457
0.0952501
0.0839654
0.0631313
0.0931317
0.102616
0.0817025
0.0924865
0.0966677
0.0821971
0.0807988
0.095727
0.0842609
0.0981383
0.104181
0.09479
0.0958435
0.0956791
0.0676545
0.059539
0.087884
0.0627459
0.0672952
0.0900135
0.0685086
0.0897032
0.0918079
0.0878451
0.0849291
0.0692772
0.0853428
0.0731775
0.0895464
0.0911394
0.0744787
0.0721613
0.0835878
0.0993491
0.0860807
0.0546351
0.061086
0.0947377
0.0867826
0.0586176
0.0910783
0.0914112
0.0973202
0.0823532
0.0516873
0.0738612
0.0583129
0.0924127
0.0927529
0.0855628
0.0814979
0.0915302
0.0922078
0.0805515
0.0997476
0.0940865
0.0990938
0.100802
0.104271
0.0877168
0.0465436
0.0851184
0.0681938
0.0970718
0.0981668
0.0927495
0.0907417
0.100745
0.095752
0.0893891
0.0854358
0.0935929
0.0898605
0.089429
0.0970787
0.0719717
0.103084
0.0975263
0.105222
0.0495955
0.0913428
0.101417
0.0473764
0.0954188
0.0982533
0.0993399
0.0479449
0.0956579
0.0923757
0.101541
0.0941658
0.102564
0.102998
0.0874996
0.0957391
0.092827
0.0751083
0.0865018
0.0994288
0.0477035
0.10219
0.0985791
0.103349
0.064742
0.0923093
0.102979
0.0800854
0.0932819
0.0986875
0.102401
0.0691865
0.0977382
0.0678953
0.0642335
0.100298
0.10098
0.0966651
0.101627
0.103004
0.101439
0.071378
0.0970082
0.103646
0.0585105
0.0806913
0.0976573
0.0627105
0.0493546
0.0909185
0.0946904
0.0843471
0.0913999
0.0996147
0.0988917
0.0979593
0.109399
0.102793
0.101586
0.0977483
0.0983696
0.111448
0.105988
0.101176
0.10422
0.102505
0.102704
0.0983971
0.0983773
0.0981074
0.101519
0.103451
0.102656
0.100295
0.0981721
0.0977416
0.0980518
0.105082
0.108182
0.100784
0.103581
0.0987027
0.0977407
0.0979931
0.108141
0.100792
0.104255
0.102159
0.098219
0.098407
0.0979792
0.103924
0.105337
0.100949
0.102944
0.0979442
0.0977231
0.0981156
0.102082
0.10315
0.105651
0.10401
0.0985656
0.106324
0.100945
0.102309
0.101583
0.104179
0.107461
0.104366
0.113511
0.101984
0.102966
0.100458
0.105381
0.102296
0.104221
0.106096
0.105694
0.103396
0.101117
0.0981914
0.101112
0.100251
0.0982683
0.0984677
0.100771
0.107787
0.102192
0.107194
0.109006
0.0901611
0.0910264
0.0937099
0.111843
0.103439
0.10871
0.104444
0.112418
0.104894
0.102471
0.107267
0.102837
0.101868
0.103536
0.107851
0.10195
0.0989964
0.104259
0.109525
0.109401
0.0915311
0.0995546
0.106069
0.103538
0.107093
0.103258
0.103444
0.104091
0.107209
0.104934
0.102597
0.0804233
0.0982697
0.104538
0.0960301
0.097558
0.083156
0.0978296
0.0974177
0.104337
0.0945488
0.0589577
0.0951456
0.0877415
0.0971469
0.0998949
0.120002
0.100666
0.0688281
0.101628
0.104794
0.101466
0.0674699
0.0977966
0.105158
0.100146
0.0977225
0.083523
0.0786362
0.071805
0.0632276
0.084986
0.0786559
0.0900978
0.101306
0.101207
0.100672
0.098168
0.115253
0.10479
0.10707
0.102482
0.101556
0.105167
0.11175
0.103187
0.0906162
0.0964899
0.103215
0.0755349
0.106348
0.0957912
0.101164
0.102614
0.0930596
0.0579645
0.0798946
0.0955504
0.053447
0.0616299
0.102722
0.101238
0.0983464
0.0989835
0.0775177
0.104258
0.107131
0.10388
0.106861
0.100563
0.105891
0.108019
0.0712593
0.104381
0.0948908
0.0995183
0.0941797
0.08802
0.101357
0.103813
0.101466
0.110298
0.0994966
0.105429
0.105679
0.0632124
0.095517
0.0789
0.0959975
0.0997561
0.0897203
0.102447
0.111016
0.106919
0.105291
0.0999202
0.103902
0.104432
0.085402
0.0828919
0.0859698
0.0858259
0.0538267
0.0887678
0.0500682
0.0888058
0.0906613
0.061398
0.0793193
0.0882257
0.0825373
0.100022
0.099887
0.100052
0.106281
0.0983916
0.104324
0.105144
0.0967177
0.0940571
0.100573
0.0962985
0.0912128
0.0906967
0.106417
0.103503
0.102345
0.102005
0.0979319
0.0981776
0.0976967
0.0981885
0.104729
0.107386
0.100163
0.0979766
0.0982075
0.0980076
0.0982137
0.10398
0.107558
0.100551
0.10369
0.100199
0.104787
0.10282
0.0860075
0.0859008
0.058856
0.1058
0.0960644
0.0666468
0.0937136
0.0909912
0.0599767
0.100331
0.0865829
0.103553
0.0897216
0.100698
0.0989102
0.101325
0.101574
0.102234
0.102948
0.102387
0.102248
0.0958303
0.101448
0.100234
0.103004
0.100712
0.10238
0.0975148
0.0998281
0.0955125
0.0997239
0.0962919
0.101849
0.0981209
0.099863
0.103999
0.0845727
0.0663602
0.086198
0.0627495
0.0999907
0.103382
0.0975916
0.100483
0.102456
0.104888
0.0993353
0.0929772
0.101826
0.0942725
0.104691
0.0968288
0.10158
0.0993742
0.0862739
0.0686931
0.089493
0.0702586
0.0882176
0.087394
0.0829827
0.0868307
0.0860335
0.0736135
0.0908289
0.100913
0.101893
0.0882614
0.101949
0.0988517
0.098297
0.100837
0.102498
0.102774
0.100705
0.100667
0.102585
0.0595838
0.0619775
0.0607258
0.0596451
0.0967914
0.0947261
0.094502
0.0950188
0.101193
0.101146
0.0985248
0.101953
0.0988724
0.100589
0.0926115
0.0617347
0.063932
0.0646896
0.0612039
0.0881094
0.0862023
0.0854726
0.0878661
0.0890653
0.092061
0.0936757
0.0834943
0.0866182
0.0975677
0.0633248
0.0602102
0.0869779
0.087928
0.0513756
0.0858805
0.0941665
0.0770386
0.0718652
0.0884462
0.0961818
0.0988144
0.107843
0.094722
0.0963406
0.0949435
0.10249
0.0832771
0.0852038
0.0882724
0.0836848
0.066486
0.0898204
0.0937378
0.0821342
0.0874059
0.0934192
0.0853543
0.0643157
0.100843
0.0873373
0.0776879
0.0694859
0.0986382
0.104633
0.0905418
0.0992894
0.0986875
0.0757855
0.0668321
0.0979204
0.0855533
0.0855436
0.0868709
0.079803
0.0650772
0.0702917
0.0904333
0.0998905
0.0726254
0.0903601
0.0901477
0.0800742
0.0610135
0.0551369
0.0505825
0.0927025
0.104575
0.0995127
0.0665202
0.0980357
0.0835335
0.0903363
0.0945445
0.0940645
0.101688
0.0920391
0.101894
0.0835986
0.0938564
0.100377
0.0979365
0.100618
0.0838839
0.101584
0.0818824
0.0971736
0.0637868
0.0799934
0.0679127
0.0811456
0.0816161
0.0709831
0.0681434
0.073203
0.0719879
0.0638117
0.0990361
0.101901
0.0974708
0.0976573
0.0989402
0.101131
0.100143
0.0970802
0.0995399
0.102589
0.0958385
0.0983877
0.0992754
0.0995366
0.10381
0.0990624
0.102267
0.0979199
0.0990115
0.100122
0.0977581
0.100222
0.0984748
0.100675
0.0962322
0.100666
0.0968607
0.105656
0.0984667
0.0984899
0.09485
0.101966
0.0630478
0.097314
0.100415
0.10055
0.098096
0.0750622
0.063594
0.0949799
0.09555
0.0953716
0.0660215
0.0948079
0.0734957
0.0947383
0.0813698
0.0496724
0.0497921
0.0560869
0.0520924
0.0908861
0.0984582
0.102271
0.100362
0.101848
0.079768
0.0926543
0.0888728
0.10365
0.0922291
0.0874879
0.0932302
0.0666419
0.0937181
0.0823021
0.0868315
0.0543367
0.0979872
0.0875897
0.101103
0.0860512
0.0523447
0.0945686
0.0883801
0.050388
0.0702824
0.0535337
0.085507
0.104093
0.0869262
0.0610086
0.0621488
0.0977758
0.0885577
0.0662938
0.0760919
0.0767672
0.0865911
0.0950531
0.0822092
0.0771376
0.0812763
0.0696768
0.0603203
0.0750655
0.0989508
0.0922526
0.0860614
0.0978077
0.0946756
0.0760089
0.101746
0.0907856
0.0666001
0.0954005
0.09437
0.0811143
0.0844825
0.049621
0.0774499
0.0886847
0.0733573
0.0615708
0.0790989
0.0663214
0.083596
0.0742774
0.0802208
0.0739532
0.101433
0.0931007
0.0930768
0.0933958
0.0941931
0.0728032
0.0439594
0.0564362
0.0842962
0.0879377
0.0391617
0.0902051
0.0642509
0.0947313
0.0993638
0.0956043
0.0938294
0.0902869
0.0983444
0.0998097
0.0934258
0.0992883
0.0861545
0.0846545
0.0710923
0.0851165
0.0870162
0.0917221
0.0743871
0.0842692
0.0826125
0.0666972
0.0870198
0.0904545
0.0911064
0.068935
0.0965836
0.104048
0.101963
0.0997806
0.0940167
0.0998853
0.101245
0.102504
0.0993629
0.10122
0.0996852
0.09635
0.100761
0.0994816
0.0965114
0.0941701
0.0997419
0.10088
0.098093
0.0971716
0.101128
0.0879914
0.0886606
0.0751314
0.0852974
0.0869753
0.0804581
0.0818711
0.0751154
0.0529942
0.0617045
0.0885343
0.0814446
0.0793817
0.10154
0.100235
0.0966784
0.103704
0.0990233
0.0943873
0.099169
0.10697
0.0970202
0.100717
0.0958588
0.0963746
0.0924983
0.100375
0.0907883
0.0929996
0.0971121
0.0987143
0.0922492
0.0996656
0.0997297
0.0768309
0.0844971
0.0722197
0.0814662
0.0544982
0.0855281
0.0971368
0.0989698
0.100823
0.0997843
0.10062
0.0984986
0.0979034
0.101013
0.0981287
0.0942769
0.100796
0.0958924
0.0920174
0.0991504
0.0977874
0.100218
0.101251
0.0900088
0.102733
0.101657
0.0899677
0.0812494
0.0962255
0.0971366
0.100479
0.0922218
0.0939131
0.106012
0.0975309
0.0981769
0.0971401
0.0953605
0.0903166
0.0954395
0.102468
0.0985416
0.0930685
0.103714
0.0978053
0.0866059
0.0620495
0.0874487
0.0896352
0.0926748
0.0859945
0.0896568
0.058866
0.0512866
0.0729272
0.0713028
0.0891225
0.0694785
0.067799
0.0912915
0.0820851
0.0894583
0.0789725
0.0784874
0.0859934
0.0716718
0.0873345
0.053767
0.080754
0.0946273
0.0901627
0.0856581
0.0905075
0.0626737
0.0801104
0.098991
0.0946399
0.0828556
0.0936511
0.0754912
0.0801011
0.0870549
0.0647304
0.0669776
0.0976201
0.0944616
0.0946444
0.0976698
0.0856917
0.0868467
0.04841
0.0856384
0.0805249
0.0849053
0.0407319
0.0591786
0.0698958
0.0918266
0.0828945
0.0939049
0.067831
0.0899472
0.0752021
0.100838
0.0979194
0.0996117
0.096182
0.0999519
0.0854444
0.0869802
0.0574783
0.102027
0.0978784
0.0879091
0.0570455
0.0976347
0.101643
0.101951
0.103024
0.0919035
0.10212
0.097864
0.0981049
0.102386
0.100986
0.100695
0.0998966
0.101142
0.0980719
0.0989841
0.106891
0.101444
0.10308
0.0985022
0.101558
0.0979943
0.10742
0.0955931
0.0969719
0.102582
0.0971973
0.104751
0.0966892
0.0980118
0.0906051
0.0903245
0.100373
0.100433
0.101316
0.0998863
0.0968941
0.09113
0.0929658
0.0940298
0.0956109
0.0994477
0.0984115
0.105375
0.0601326
0.105449
0.0934918
0.0745719
0.0957071
0.0822324
0.10895
0.0584238
0.104807
0.0934946
0.0946927
0.092688
0.0914279
0.105282
0.0967816
0.0825891
0.0978714
0.10355
0.100471
0.0967759
0.104989
0.0974999
0.0856729
0.0842423
0.0971956
0.0954849
0.09866
0.0942177
0.0623269
0.0820561
0.093507
0.0963619
0.0961848
0.091855
0.0992204
0.0868587
0.0911592
0.102844
0.104685
0.104258
0.101785
0.0696507
0.0573551
0.086527
0.078195
0.0934699
0.0973469
0.0965387
0.0865819
0.0898106
0.0632528
0.0674571
0.0897853
0.0858918
0.0746778
0.0865928
0.0634118
0.103561
0.096096
0.101266
0.088011
0.0792158
0.106652
0.0789654
0.0760103
0.0961101
0.0930059
0.0919377
0.0985088
0.0941892
0.0635092
0.0606297
0.0949081
0.0651403
0.094458
0.0910753
0.102419
0.0636085
0.0960649
0.0949644
0.0969584
0.0930869
0.0916461
0.0685839
0.060956
0.0636527
0.0966641
0.0970525
0.0973827
0.087923
0.0986132
0.0875198
0.058588
0.0933322
0.0944011
0.0994453
0.0980943
0.105596
0.103821
0.0922795
0.0948686
0.0992255
0.0971345
0.0911716
0.0676581
0.0634292
0.0659125
0.0821421
0.0876594
0.085703
0.0712712
0.0638582
0.0922109
0.0935036
0.0945596
0.0901169
0.0890526
0.0650283
0.0808193
0.0879864
0.0914044
0.0908526
0.0879625
0.0873956
0.105753
0.0782321
0.0710135
0.0853347
0.104207
0.0680873
0.0872297
0.0748575
0.0898137
0.0817203
0.084513
0.0871655
0.0691937
0.087925
0.0748471
0.101838
0.0709917
0.102747
0.085863
0.0702193
0.0869179
0.0657124
0.0877294
0.0862581
0.0687617
0.0844104
0.0980351
0.0875579
0.100772
0.0998062
0.0775546
0.086086
0.0885421
0.0848275
0.0868267
0.0862736
0.0814911
0.0884331
0.0977993
0.103889
0.0860913
0.0882783
0.0974642
0.104496
0.0840455
0.0863902
0.0686308
0.0910113
0.0940683
0.0789971
0.0875876
0.0891784
0.0880313
0.0905668
0.0891174
0.089636
0.0871908
0.0825139
0.0860586
0.0890894
0.0871007
0.093077
0.0835971
0.0936253
0.0889989
0.0912477
0.0869523
0.0642304
0.0919159
0.0936888
0.090873
0.0878648
0.0978404
0.0874303
0.0951628
0.090478
0.0663727
0.0914942
0.0552781
0.0880502
0.0946511
0.0886204
0.0939269
0.0932646
0.0897667
0.0927133
0.0946829
0.0946759
0.0934559
0.0954786
0.10021
0.0999486
0.0752048
0.0788519
0.0514409
0.0677757
0.0443868
0.0641104
0.0639221
0.0818207
0.0691256
0.0669475
0.0472608
0.0490367
0.0949883
0.103908
0.0936581
0.0979466
0.0914011
0.0966587
0.108805
0.0928331
0.0896566
0.101928
0.106376
0.0967607
0.0981568
0.0987864
0.0543109
0.108907
0.104054
0.0936296
0.096796
0.0878461
0.0896648
0.0702951
0.0949487
0.0890058
0.0962658
0.0970883
0.0954156
0.101197
0.0658891
0.0861106
0.0942246
0.0807346
0.0977028
0.0936576
0.0935662
0.0918417
0.0930068
0.0862879
0.104489
0.0664235
0.0885239
0.0905265
0.0821362
0.0869192
0.0939778
0.0627902
0.0611044
0.0933479
0.0683462
0.10192
0.0609666
0.0538521
0.0940782
0.100536
0.101975
0.0992939
0.0747127
0.0958565
0.0609415
0.091902
0.0903633
0.0973767
0.0954252
0.0814957
0.0919283
0.0894891
0.0848963
0.0879732
0.095903
0.0825469
0.0953802
0.0945367
0.0802062
0.0891908
0.0900432
0.0897281
0.0820184
0.0756163
0.0698801
0.0882104
0.0898539
0.100455
0.101815
0.0927913
0.0910969
0.0917001
0.0722299
0.112978
0.0973243
0.0959866
0.0921788
0.0977156
0.0906292
0.0989127
0.0955342
0.101401
0.0945578
0.102949
0.092527
0.0990302
0.0995328
0.0613182
0.0970794
0.0918204
0.101721
0.0999866
0.0896134
0.063097
0.09511
0.091066
0.100087
0.0982372
0.0914799