/*--------------------------------*- C++ -*----------------------------------*\
  =========                 |
  \\      /  F ield         | OpenFOAM: The Open Source CFD Toolbox
   \\    /   O peration     | Website:  https://openfoam.org
    \\  /    A nd           | Version:  10
     \\/     M anipulation  |
\*---------------------------------------------------------------------------*/
FoamFile
{
    format      ascii;
    class       volScalarField;
    location    "0.05";
    object      k_0;
}
// * * * * * * * * * * * * * * * * * * * * * * * * * * * * * * * * * * * * * //

dimensions      [0 2 -2 0 0 0 0];

internalField   nonuniform List<scalar> 
115093
(
0.0973765
0.0973798
0.0973818
0.0973864
0.097384
0.0974038
0.0974213
0.0974668
0.0973835
0.0973795
0.0973828
0.0973816
0.0973864
0.0974033
0.0974285
0.0974771
0.0973805
0.0973809
0.0973868
0.0973848
0.0973855
0.0974021
0.0974276
0.0974508
0.0973831
0.0974431
0.0973929
0.0973947
0.0973869
0.0974076
0.0974227
0.0974499
0.09747
0.0974245
0.097389
0.0974032
0.097423
0.0974401
0.0973871
0.0974005
0.0974357
0.0973957
0.0974138
0.0974237
0.0975878
0.0975074
0.097399
0.0974498
0.0973925
0.0973882
0.0973953
0.0974424
0.0974857
0.0974324
0.0973852
0.0974897
0.0974
0.0973831
0.0973964
0.0974459
0.0974852
0.0974624
0.0975835
0.0978187
0.0976627
0.0974476
0.0973945
0.0974437
0.0976008
0.0974662
0.0974016
0.0977169
0.0978531
0.0975652
0.0974456
0.0974346
0.0974222
0.0974522
0.0974217
0.0975261
0.0974123
0.0974611
0.0975994
0.0975687
0.0978855
0.097722
0.0977448
0.0976614
0.0978419
0.0974987
0.0974271
0.0975308
0.0975777
0.09775
0.0974298
0.0978348
0.0977928
0.0977902
0.0978113
0.0975005
0.0976067
0.0977075
0.0977905
0.0974108
0.0974323
0.0974613
0.0978634
0.0982269
0.0978894
0.0975789
0.0976426
0.0978797
0.0976315
0.0974483
0.0974202
0.0974674
0.0978716
0.0979675
0.0976237
0.0975368
0.101518
0.102869
0.098795
0.0977227
0.0975387
0.0978803
0.0980216
0.09774
0.0974902
0.0975271
0.0977288
0.103159
0.10088
0.0982351
0.0980406
0.0977257
0.0977801
0.0974818
0.0974555
0.0975004
0.0979491
0.0997286
0.100756
0.0978391
0.0973832
0.0973966
0.0974474
0.09763
0.0977264
0.0979549
0.0981521
0.0980234
0.0985186
0.0978977
0.0974184
0.0974705
0.0976958
0.0977912
0.0980558
0.0978589
0.0977085
0.0977425
0.0981224
0.0982919
0.0974337
0.0975952
0.0983753
0.103259
0.102403
0.102879
0.098849
0.0980568
0.0982019
0.0984013
0.0976579
0.0982911
0.103301
0.101495
0.0981698
0.104521
0.102442
0.0984358
0.098132
0.0981767
0.0978673
0.102073
0.101672
0.0980768
0.0976369
0.0982375
0.102938
0.103664
0.10007
0.0980451
0.0996967
0.100969
0.098316
0.0975671
0.0975897
0.0975752
0.105477
0.102531
0.100106
0.0980266
0.0992011
0.0999802
0.0991891
0.0977797
0.0976201
0.107746
0.103321
0.0986414
0.0976223
0.0974781
0.100187
0.101842
0.10069
0.0981727
0.107181
0.103769
0.099306
0.0979445
0.0975787
0.0975691
0.0976253
0.101462
0.100141
0.0997572
0.102938
0.0989491
0.0979547
0.0982419
0.0980352
0.0985077
0.097387
0.0974138
0.097634
0.0977894
0.0986079
0.103334
0.100336
0.105285
0.10436
0.0990427
0.0974148
0.0976494
0.0978038
0.0985218
0.10179
0.102427
0.0995211
0.0988308
0.103316
0.10294
0.0977763
0.0987242
0.103498
0.101799
0.0986363
0.0999131
0.100071
0.0988405
0.0994063
0.101701
0.0985908
0.10254
0.101807
0.0999002
0.102616
0.102338
0.100573
0.0982472
0.1029
0.102925
0.103224
0.101657
0.0994111
0.0987213
0.0978272
0.0980179
0.107485
0.111759
0.103652
0.098372
0.0985469
0.0991037
0.0983573
0.0978908
0.0977428
0.0980673
0.100989
0.103779
0.101221
0.098557
0.0989719
0.10096
0.0987763
0.0979669
0.0995747
0.101847
0.104928
0.100832
0.0995459
0.097867
0.105651
0.100971
0.105936
0.0999084
0.0990798
0.107724
0.101107
0.0980145
0.0975257
0.0974759
0.101143
0.104016
0.101963
0.100371
0.108
0.102134
0.0977205
0.0976253
0.0977495
0.0983373
0.0974337
0.0976125
0.0977201
0.0985023
0.101882
0.102496
0.0999781
0.0990826
0.103631
0.103647
0.0978145
0.0982203
0.0984871
0.100241
0.101434
0.100208
0.108777
0.11797
0.101276
0.117238
0.103953
0.0988149
0.102922
0.102818
0.0988383
0.100285
0.107172
0.104554
0.107445
0.104046
0.11175
0.102364
0.101327
0.101829
0.100558
0.10471
0.105728
0.101835
0.102436
0.117163
0.100514
0.117241
0.10388
0.102728
0.101018
0.104707
0.106835
0.106087
0.107289
0.102124
0.105273
0.104652
0.102749
0.100787
0.100381
0.10393
0.103298
0.103077
0.104666
0.11119
0.107025
0.116446
0.103449
0.0982375
0.0979759
0.10356
0.102776
0.106173
0.104818
0.104615
0.112588
0.109988
0.101679
0.0990639
0.0977594
0.0976941
0.101764
0.097049
0.101644
0.107469
0.103855
0.108064
0.101406
0.0977693
0.0976101
0.0975376
0.0975447
0.100987
0.107156
0.11025
0.101066
0.0974977
0.097718
0.0977667
0.0983241
0.0974381
0.0975756
0.0975072
0.0982489
0.101653
0.101146
0.101509
0.098896
0.103673
0.103227
0.0977936
0.0980379
0.0983298
0.100359
0.100922
0.101993
0.103553
0.108854
0.107058
0.118608
0.102932
0.0988141
0.10276
0.101391
0.0990034
0.102418
0.103338
0.105688
0.0962661
0.129638
0.124632
0.103493
0.101368
0.102144
0.0999992
0.103946
0.103562
0.102058
0.0745059
0.109642
0.106328
0.132861
0.102901
0.102981
0.100119
0.103699
0.101886
0.095892
0.0726328
0.0876644
0.129629
0.110264
0.102314
0.100313
0.0991792
0.103551
0.101703
0.0974355
0.069476
0.0771445
0.137793
0.122827
0.102435
0.0981689
0.0979267
0.100958
0.102087
0.0992801
0.0982417
0.0939712
0.126853
0.108983
0.101397
0.0990306
0.0977599
0.0976775
0.0909703
0.0912117
0.0888148
0.0891022
0.127172
0.113288
0.10122
0.0978289
0.0976056
0.097529
0.0975289
0.0621939
0.119254
0.110784
0.101579
0.0975369
0.0979477
0.0979078
0.0983652
0.0974027
0.0974726
0.09766
0.098596
0.102332
0.101011
0.0998764
0.105737
0.105479
0.0987231
0.0974212
0.0975969
0.0980657
0.101341
0.100364
0.100663
0.100991
0.104547
0.107351
0.104022
0.100905
0.0977217
0.0983443
0.102309
0.101423
0.101069
0.109151
0.104759
0.109409
0.10886
0.130789
0.104925
0.0982987
0.102215
0.101748
0.101076
0.107698
0.102558
0.103783
0.105682
0.112484
0.104161
0.100899
0.101057
0.101883
0.105908
0.104134
0.101025
0.103301
0.1331
0.118743
0.104191
0.0982776
0.0983365
0.0996796
0.0999822
0.105968
0.100543
0.104035
0.126405
0.106975
0.102921
0.099621
0.0978314
0.0976692
0.102754
0.102917
0.106425
0.100985
0.101514
0.130052
0.109565
0.10312
0.097982
0.0977407
0.0975487
0.0975717
0.101907
0.0962103
0.104189
0.102305
0.116275
0.108134
0.10292
0.0988009
0.0976454
0.0975349
0.0975402
0.0975399
0.0996639
0.0998181
0.100179
0.0983672
0.0973896
0.0974188
0.0975345
0.0978214
0.0979969
0.0976755
0.0983318
0.0981353
0.09886
0.097798
0.0974325
0.097505
0.0977497
0.0989943
0.104016
0.101091
0.0997268
0.106946
0.106307
0.098672
0.0984672
0.0974308
0.0975626
0.0982684
0.103352
0.100543
0.0988007
0.0997233
0.0990272
0.108245
0.10457
0.100841
0.0976462
0.0982605
0.103027
0.100325
0.0989343
0.0982702
0.0991089
0.11847
0.105251
0.0984959
0.0984461
0.0981908
0.102252
0.100758
0.0984962
0.0983697
0.0981409
0.108559
0.103729
0.0999113
0.0977059
0.0976492
0.0985752
0.0986146
0.0985101
0.0980407
0.0983332
0.11204
0.103733
0.0981318
0.097841
0.0975787
0.0975662
0.100044
0.0997294
0.0991475
0.100214
0.0985167
0.109336
0.103556
0.0988365
0.0975531
0.0975082
0.0975284
0.0975506
0.105043
0.102044
0.109225
0.0996883
0.105326
0.100843
0.0983419
0.0976824
0.0975331
0.0974788
0.0975016
0.0975201
0.106655
0.103396
0.10301
0.0973803
0.0973818
0.0973872
0.097437
0.0975634
0.0974406
0.0976073
0.0977979
0.0980756
0.0973864
0.0974052
0.0974977
0.0977165
0.0976943
0.0975425
0.0979704
0.0979486
0.0983612
0.0974184
0.097464
0.0975934
0.097646
0.0979972
0.0974843
0.0976663
0.0977663
0.0984945
0.0974507
0.0975616
0.09759
0.0977408
0.0974414
0.0974586
0.097651
0.098172
0.0984444
0.0975853
0.0976534
0.0978166
0.097438
0.0974525
0.0974563
0.0979125
0.0978911
0.0978752
0.0975551
0.0978205
0.097849
0.0976327
0.0975096
0.0978268
0.0978056
0.097508
0.0975119
0.0980929
0.101186
0.102649
0.0986472
0.0980189
0.0976808
0.0976302
0.0975259
0.097506
0.0981733
0.0982076
0.102212
0.101281
0.0984597
0.0976167
0.0975116
0.0973778
0.0973817
0.0973835
0.0973911
0.0973997
0.0974381
0.0974486
0.0975093
0.0975165
0.0973804
0.0973786
0.0973816
0.0973929
0.0974368
0.0974137
0.09749
0.0976185
0.0977584
0.0973796
0.0973892
0.097427
0.0974956
0.0973969
0.0974132
0.0974944
0.0976857
0.0977762
0.0973849
0.0974002
0.0974442
0.0973929
0.0974069
0.0974116
0.0974787
0.0975983
0.0977559
0.097401
0.0974591
0.0973855
0.0973881
0.0974029
0.0974429
0.0974907
0.0974736
0.0974607
0.0973813
0.0973909
0.0974963
0.097407
0.0974033
0.0974357
0.0975434
0.0975242
0.0975163
0.0974717
0.0975548
0.0977778
0.0976119
0.0974728
0.0974513
0.0974231
0.0974288
0.0974432
0.0974047
0.0973997
0.0976771
0.0978461
0.0973833
0.0973925
0.0973959
0.0974158
0.0974295
0.0974656
0.0974852
0.0973806
0.0973824
0.0973937
0.0974014
0.0974186
0.097457
0.0975015
0.0973845
0.0973945
0.097392
0.0974085
0.0974227
0.097472
0.09749
0.0973889
0.0973857
0.0973891
0.0974026
0.0974154
0.0974491
0.0974835
0.0973808
0.0973874
0.0973879
0.0974144
0.0974208
0.0974351
0.097457
0.0974652
0.0974109
0.0973892
0.0973981
0.0974177
0.0974366
0.0974544
0.0983105
0.102275
0.0999095
0.102803
0.102676
0.103608
0.10274
0.103817
0.1013
0.100745
0.102218
0.10144
0.10092
0.103653
0.10179
0.0616108
0.105908
0.104262
0.103646
0.0996196
0.0929886
0.0678826
0.0987509
0.100936
0.101244
0.101036
0.101781
0.0995883
0.0531954
0.103224
0.10124
0.105868
0.0637451
0.097682
0.104603
0.111636
0.102753
0.103728
0.0863008
0.0826789
0.077082
0.104059
0.104925
0.103973
0.0986286
0.083616
0.0615373
0.0638595
0.104805
0.106468
0.103589
0.101311
0.0940234
0.0960347
0.103794
0.105228
0.102293
0.0947625
0.0680979
0.0813412
0.104174
0.100377
0.101545
0.103569
0.100188
0.101044
0.103317
0.102082
0.100955
0.102123
0.101443
0.101625
0.100498
0.10164
0.0991254
0.0986135
0.0993832
0.0946153
0.0966475
0.103642
0.103254
0.101398
0.0971331
0.0673117
0.0966074
0.106209
0.0998462
0.0783797
0.0735421
0.102718
0.0993501
0.102385
0.0874405
0.0976935
0.0930716
0.0853565
0.0968531
0.101176
0.0881989
0.0492639
0.101297
0.100059
0.100135
0.0739181
0.0574998
0.10129
0.100651
0.0565084
0.099754
0.102052
0.0689785
0.100402
0.0987691
0.0771845
0.0715927
0.0639893
0.100975
0.0999626
0.101875
0.0995948
0.0726499
0.0677891
0.0700008
0.107456
0.10352
0.106302
0.0976629
0.0665598
0.0824832
0.0995646
0.105235
0.103141
0.0947098
0.0905131
0.103204
0.104788
0.0903581
0.102315
0.103266
0.0992289
0.0900573
0.101814
0.100052
0.105526
0.102157
0.102678
0.095948
0.104079
0.0738438
0.100588
0.104972
0.101297
0.0958599
0.0871013
0.0868487
0.0950843
0.089182
0.0855275
0.0922104
0.0865089
0.0478338
0.0964645
0.0914864
0.0930644
0.0524149
0.0945819
0.100524
0.0984187
0.0965516
0.0993908
0.098749
0.0968101
0.101795
0.0885389
0.103153
0.102181
0.103294
0.100028
0.104082
0.099888
0.100951
0.102107
0.102931
0.100137
0.102537
0.101933
0.104047
0.102104
0.0948109
0.104054
0.0992739
0.101386
0.0999188
0.102264
0.0978776
0.097676
0.0979261
0.102399
0.103782
0.102321
0.103013
0.0978088
0.0977548
0.0979087
0.102216
0.102948
0.102394
0.103361
0.0978144
0.0990174
0.0981943
0.101947
0.102441
0.103317
0.0994776
0.102646
0.10309
0.10227
0.104305
0.101021
0.10557
0.10075
0.110865
0.103527
0.104564
0.10582
0.106738
0.107485
0.0858187
0.103286
0.104154
0.0987288
0.104169
0.103382
0.0988104
0.0841336
0.107738
0.102218
0.103008
0.0865114
0.10953
0.0856401
0.104212
0.104569
0.106747
0.103014
0.100307
0.0971084
0.0987877
0.0654528
0.0709263
0.0982144
0.105589
0.0998306
0.0988283
0.0905481
0.0814865
0.103372
0.109278
0.100775
0.0815279
0.0821736
0.0654252
0.10322
0.104367
0.107204
0.101922
0.066919
0.065707
0.0906466
0.100038
0.0846448
0.0980311
0.104037
0.0767491
0.0948496
0.0827385
0.0712495
0.102566
0.104433
0.107782
0.0835375
0.100962
0.103754
0.103048
0.0969051
0.0871318
0.0999137
0.0556998
0.0953612
0.0932078
0.100963
0.0910189
0.0989579
0.0995943
0.102036
0.0925254
0.0979037
0.0645276
0.0705255
0.0993351
0.103354
0.0955189
0.0992462
0.112981
0.0986364
0.0787035
0.100262
0.0994389
0.0996708
0.0838453
0.0832446
0.105781
0.107356
0.0808388
0.104921
0.116172
0.101352
0.101143
0.104584
0.0963817
0.072054
0.103137
0.112262
0.0994407
0.102032
0.104414
0.0729819
0.108207
0.100416
0.10128
0.104699
0.10427
0.096494
0.0945731
0.0662815
0.104625
0.103287
0.101715
0.102339
0.0852799
0.0899311
0.0655055
0.0977368
0.0994125
0.0942518
0.0688333
0.0726739
0.102875
0.102102
0.0991368
0.106347
0.101487
0.101372
0.0955739
0.101266
0.103367
0.100828
0.106282
0.090739
0.0853466
0.0908725
0.0967507
0.0758236
0.0870165
0.0961073
0.0745532
0.0874856
0.0994316
0.103726
0.0971228
0.106968
0.101723
0.0948409
0.0980151
0.102198
0.104293
0.105434
0.104195
0.0858222
0.0856823
0.0664879
0.0982083
0.0941131
0.101875
0.0873901
0.0805712
0.101825
0.103379
0.102503
0.105569
0.100838
0.086578
0.0641339
0.0870581
0.0649031
0.0810232
0.0642872
0.0907601
0.0989358
0.0783721
0.0541017
0.102142
0.0978841
0.0943804
0.0982016
0.0997034
0.102066
0.102356
0.10143
0.0981173
0.0980112
0.0977177
0.0980639
0.101537
0.102182
0.101702
0.0978919
0.0979186
0.0979541
0.0980188
0.0994249
0.107901
0.105716
0.101857
0.107715
0.105276
0.105015
0.103281
0.105616
0.105826
0.104717
0.103796
0.103727
0.101461
0.101421
0.103265
0.10351
0.100685
0.0990821
0.0985367
0.103732
0.100437
0.0864048
0.0876867
0.100271
0.096606
0.0992811
0.0872271
0.0984381
0.103081
0.100405
0.0983735
0.102999
0.0956239
0.106062
0.102185
0.106052
0.101352
0.0769257
0.0901048
0.101923
0.101366
0.103292
0.102758
0.103178
0.103139
0.100607
0.0997528
0.100069
0.0999028
0.103839
0.11151
0.10336
0.101991
0.101941
0.100022
0.0998208
0.110717
0.104911
0.0998997
0.0868129
0.0975183
0.100481
0.0880863
0.103367
0.101954
0.09011
0.0944567
0.103447
0.0936112
0.104612
0.101853
0.0877463
0.0960778
0.0966897
0.100547
0.0953053
0.10173
0.0951262
0.100432
0.100723
0.100489
0.100654
0.100946
0.102253
0.100692
0.102164
0.103016
0.094907
0.102266
0.0959781
0.100303
0.104728
0.102807
0.0945674
0.102789
0.0989708
0.0515473
0.0977546
0.0971717
0.0970163
0.0996108
0.0896151
0.0643293
0.0989124
0.100722
0.0892841
0.0940353
0.100766
0.0619751
0.101185
0.0939704
0.0904744
0.0989969
0.105149
0.0966878
0.0581274
0.0981287
0.104103
0.0821645
0.0975858
0.102306
0.0953862
0.0642157
0.101334
0.0951389
0.0815076
0.0980431
0.101628
0.0598289
0.064288
0.10229
0.0967171
0.0788404
0.0691728
0.105281
0.0978179
0.0841636
0.0989088
0.0802461
0.0600192
0.0670981
0.103619
0.0988291
0.0779543
0.0988469
0.0744176
0.0592011
0.0963967
0.0954259
0.093897
0.0722006
0.0841421
0.100025
0.0558458
0.100826
0.0671209
0.0698414
0.0682452
0.0653653
0.071309
0.0547365
0.065893
0.0640513
0.0969762
0.0697173
0.087435
0.0814345
0.0847189
0.081375
0.0963848
0.0849968
0.0992512
0.105163
0.0950849
0.0990284
0.0897511
0.0942244
0.0827669
0.105236
0.0984228
0.068568
0.0977302
0.0920824
0.0889951
0.0885438
0.104255
0.0986818
0.0916802
0.0986131
0.0920631
0.0870618
0.0660215
0.0941485
0.0858082
0.0902683
0.0825791
0.0944659
0.0706176
0.0695865
0.086795
0.0614908
0.0892892
0.0808256
0.0705799
0.0668721
0.0862873
0.0894885
0.0765272
0.0709865
0.0823869
0.0643775
0.0799288
0.077276
0.0924809
0.0982378
0.0996788
0.0599062
0.0998861
0.0621443
0.0905735
0.0923199
0.0592906
0.0651641
0.0911457
0.0642253
0.0993578
0.104361
0.0751512
0.0989995
0.0874734
0.0696055
0.0658758
0.104312
0.0982553
0.0976941
0.0696911
0.0660627
0.103693
0.0986736
0.0834541
0.0984687
0.0632493
0.100727
0.0798816
0.0605851
0.0820846
0.0693372
0.0746285
0.079836
0.0597833
0.0620579
0.0747267
0.102703
0.0785834
0.0691208
0.072184
0.0593616
0.0772399
0.0840406
0.0905639
0.0925496
0.0709832
0.0948784
0.0835251
0.0812082
0.0837174
0.0945945
0.0696531
0.0931221
0.0791414
0.0973423
0.087476
0.100641
0.090346
0.1019
0.0880965
0.0888021
0.0883771
0.0853742
0.0993084
0.101343
0.0883279
0.101466
0.0547727
0.0985561
0.104434
0.0850251
0.0988429
0.0980125
0.0899689
0.0865002
0.0866731
0.0912057
0.103199
0.0997439
0.101202
0.0842308
0.102318
0.0998637
0.103167
0.0996703
0.0982446
0.0950787
0.0848005
0.0975731
0.100009
0.0874785
0.0662782
0.0983644
0.0909445
0.0606542
0.0661445
0.0597666
0.0677621
0.0805816
0.0910125
0.0917735
0.0641288
0.0684824
0.0625766
0.092418
0.0940305
0.0662282
0.0873584
0.094008
0.0655522
0.0882446
0.087344
0.0840731
0.094204
0.0879277
0.0951302
0.0623114
0.0909336
0.0813326
0.0987023
0.0832373
0.100944
0.0933553
0.0595773
0.102694
0.0707531
0.0967291
0.0993778
0.102672
0.0966605
0.0534923
0.102034
0.0695855
0.0974965
0.102162
0.102084
0.0560229
0.0538133
0.0933237
0.0681665
0.0980453
0.101689
0.0887641
0.0931984
0.062143
0.0997265
0.0998916
0.0952947
0.0727165
0.0631541
0.104
0.104616
0.0902031
0.0755732
0.0586422
0.0870538
0.0814702
0.0926886
0.0893155
0.100574
0.106559
0.0978757
0.095236
0.0957449
0.0988103
0.100346
0.086784
0.0709755
0.0957242
0.0750423
0.0992133
0.0947246
0.0913461
0.0895862
0.054065
0.0970617
0.0739318
0.0975247
0.0995784
0.100539
0.0721627
0.0565135
0.0993939
0.0717767
0.0926721
0.10104
0.0978453
0.0997308
0.102045
0.0992752
0.100624
0.0971372
0.101464
0.0966035
0.0974204
0.10193
0.0982481
0.096886
0.0923742
0.0932814
0.0855923
0.0719968
0.0971685
0.106777
0.0999129
0.0841196
0.0928829
0.106737
0.0711925
0.0977076
0.103177
0.0996973
0.0708746
0.0962732
0.104007
0.0744313
0.0973082
0.072387
0.10773
0.0887483
0.108323
0.0758344
0.0966159
0.0980284
0.0698867
0.105053
0.0916187
0.103929
0.0767277
0.0968627
0.0972832
0.108791
0.100259
0.0711603
0.0919501
0.107996
0.0833279
0.0979745
0.0706511
0.108223
0.0909874
0.107969
0.0783446
0.0967272
0.0991387
0.0915615
0.101315
0.0983819
0.105577
0.0839245
0.0991075
0.093563
0.082245
0.0894535
0.0942787
0.0957703
0.0844222
0.0638459
0.0934572
0.10278
0.0821052
0.0929837
0.0974266
0.0826415
0.0812318
0.0960522
0.0846409
0.0982569
0.104446
0.095053
0.0962197
0.0958075
0.0682522
0.060133
0.0883255
0.0634091
0.0679472
0.0904088
0.0693281
0.0900566
0.0922749
0.0881848
0.0856174
0.0700853
0.0857639
0.0738036
0.0899244
0.0916221
0.0750745
0.0727652
0.0838569
0.0995442
0.0865249
0.0551283
0.0616916
0.0951211
0.0871441
0.0591669
0.0914209
0.0917127
0.0975927
0.0828847
0.0521693
0.0744483
0.0590137
0.0928262
0.0929731
0.0859178
0.08206
0.0921908
0.0925799
0.0809471
0.100379
0.0944788
0.0994368
0.100894
0.104529
0.0881298
0.0469991
0.0855797
0.0689801
0.0973776
0.0984725
0.0933492
0.0912102
0.100977
0.0959732
0.0898487
0.0858776
0.0941431
0.0904125
0.0898418
0.09742
0.0726584
0.103192
0.0977878
0.105352
0.0501138
0.0916427
0.101694
0.0478853
0.0957142
0.0984637
0.0996355
0.0484729
0.0958622
0.0928821
0.101768
0.0944717
0.102847
0.103218
0.0879321
0.0961731
0.0933346
0.0757267
0.0868195
0.0997123
0.0482213
0.102274
0.0988362
0.10355
0.065252
0.0926224
0.103138
0.080574
0.0935727
0.0988798
0.102589
0.0697127
0.0979565
0.0684123
0.0647255
0.10056
0.101179
0.0968985
0.101806
0.10311
0.101579
0.0719801
0.0972424
0.103761
0.059007
0.0812304
0.097822
0.063252
0.0499014
0.0911727
0.0949902
0.0848265
0.0916772
0.0998146
0.0989225
0.0980031
0.109416
0.102805
0.101597
0.0977919
0.098412
0.111562
0.106044
0.101224
0.104221
0.102516
0.102718
0.0984397
0.0984181
0.0981524
0.101577
0.103463
0.102709
0.100363
0.0982099
0.0977849
0.0980918
0.105127
0.108221
0.100823
0.103623
0.0987323
0.0977849
0.0980441
0.108092
0.100887
0.104269
0.102237
0.098257
0.0984448
0.0980211
0.103976
0.105337
0.100993
0.102994
0.0979856
0.0977695
0.098155
0.102119
0.103231
0.105648
0.104046
0.0986036
0.106357
0.100972
0.102377
0.101604
0.104241
0.107502
0.10439
0.113549
0.102021
0.10301
0.10049
0.105441
0.102361
0.104286
0.106134
0.105778
0.10366
0.101239
0.0982589
0.101105
0.100401
0.0983232
0.0986478
0.100922
0.107813
0.102258
0.107233
0.109149
0.0906973
0.0915643
0.0941756
0.111961
0.10348
0.108869
0.104471
0.112461
0.104948
0.102866
0.107369
0.102896
0.101942
0.103563
0.107883
0.102011
0.0991532
0.104324
0.109616
0.109469
0.091983
0.099607
0.106013
0.103633
0.10721
0.103302
0.10354
0.104102
0.107316
0.104979
0.102939
0.0810015
0.0985434
0.104644
0.0962398
0.0978059
0.0835508
0.0981949
0.0976918
0.104478
0.0951034
0.0595603
0.095637
0.0881607
0.0974281
0.0999976
0.119969
0.100776
0.069477
0.101625
0.104714
0.10155
0.0673416
0.0980845
0.105266
0.100336
0.0979682
0.0839877
0.0792037
0.0722461
0.0636991
0.0854831
0.0791261
0.0905975
0.101353
0.101255
0.100697
0.0982829
0.115322
0.104864
0.107539
0.102467
0.101601
0.105191
0.111913
0.103272
0.0909179
0.096802
0.103314
0.0760299
0.106767
0.0959572
0.101285
0.102702
0.0933095
0.0584812
0.0808135
0.0957919
0.0538799
0.0622442
0.102827
0.101348
0.0985926
0.0991544
0.0779307
0.104275
0.107074
0.103983
0.106807
0.100668
0.105982
0.108084
0.0718259
0.104647
0.0952831
0.0999586
0.0944974
0.0882472
0.101357
0.103764
0.101582
0.110267
0.0996086
0.105518
0.105778
0.0637599
0.0959428
0.0795839
0.096463
0.100453
0.0901408
0.102507
0.11101
0.106934
0.105271
0.100033
0.104006
0.104498
0.0857523
0.0834867
0.0864715
0.0861236
0.0542786
0.0891254
0.0505633
0.0891823
0.0910223
0.0619968
0.0796632
0.0886919
0.082887
0.100051
0.0999339
0.100168
0.106296
0.0985075
0.104435
0.105217
0.0968646
0.0942258
0.10086
0.0964558
0.0915143
0.0910176
0.106479
0.103505
0.102384
0.102032
0.0979754
0.0982146
0.0977418
0.0982273
0.104804
0.107342
0.100248
0.0980178
0.0982448
0.0980513
0.0982678
0.104049
0.107893
0.100616
0.103704
0.100238
0.104883
0.102909
0.0864161
0.0862224
0.059359
0.105921
0.0962123
0.067048
0.0941809
0.0912859
0.0605521
0.100418
0.0870559
0.103754
0.0900196
0.100956
0.0990426
0.101738
0.101689
0.102332
0.102987
0.102491
0.102287
0.096062
0.1015
0.100247
0.103117
0.10073
0.102623
0.0977138
0.100079
0.0957373
0.0998536
0.0965488
0.102048
0.0982073
0.100119
0.104124
0.0850233
0.0668734
0.0866773
0.06327
0.100251
0.103355
0.0976905
0.100625
0.102515
0.105098
0.0995548
0.0932516
0.101868
0.0945197
0.104778
0.0969817
0.101734
0.0996759
0.0866701
0.0691827
0.0899871
0.0706795
0.0886632
0.087913
0.0835878
0.0872032
0.0864913
0.0741461
0.0911258
0.101043
0.102107
0.088658
0.102055
0.0991047
0.0984222
0.100871
0.102605
0.102869
0.100743
0.100807
0.102683
0.0601264
0.0625097
0.0612642
0.0601892
0.0971617
0.0950242
0.0948179
0.0953165
0.101314
0.101145
0.0986031
0.10213
0.0989286
0.100746
0.0928893
0.0622277
0.0644581
0.0651608
0.0617463
0.0885404
0.0866725
0.0858861
0.0882236
0.0893948
0.0923714
0.094012
0.0839197
0.0871261
0.0979138
0.0638711
0.0608357
0.0874477
0.0883756
0.0518849
0.0860993
0.0946359
0.0775064
0.0724199
0.0888132
0.0965884
0.0990729
0.107999
0.0950281
0.0966146
0.0952976
0.102626
0.0837254
0.08564
0.0887771
0.0841642
0.0669969
0.0901178
0.0942007
0.0825875
0.0876974
0.0937381
0.0858489
0.0646604
0.10115
0.0876276
0.0780785
0.0699134
0.0988527
0.104956
0.090981
0.0994954
0.0992369
0.0762063
0.0673489
0.098054
0.0859528
0.0859958
0.0871362
0.0803663
0.0656137
0.0707816
0.0908298
0.100315
0.0731968
0.0906647
0.090663
0.0807309
0.0616397
0.0556064
0.051226
0.0929649
0.104899
0.0997182
0.0669207
0.098185
0.0839482
0.0909228
0.0947772
0.0943592
0.101799
0.0923421
0.102014
0.0839712
0.0940916
0.100789
0.0980921
0.100747
0.0843155
0.101683
0.0822854
0.0974844
0.0643688
0.0803609
0.06846
0.0811114
0.0820233
0.071502
0.0688266
0.0739611
0.0727925
0.0643994
0.099097
0.101914
0.097771
0.0978606
0.0991062
0.101183
0.10033
0.09739
0.0997438
0.102661
0.0960582
0.0985958
0.0993462
0.0997426
0.103922
0.0992502
0.102283
0.098107
0.0991358
0.10014
0.0980572
0.100285
0.0986718
0.100728
0.0964712
0.100681
0.0971844
0.105791
0.0986836
0.0987587
0.0951756
0.102097
0.063692
0.0976138
0.100679
0.100767
0.0982947
0.0756704
0.0642843
0.0953143
0.095787
0.0955418
0.0666422
0.094984
0.074086
0.0950502
0.0819155
0.0503119
0.0503154
0.0566214
0.0526657
0.0913383
0.0986711
0.102587
0.100564
0.102136
0.0798266
0.0929688
0.0893695
0.10375
0.0925107
0.088
0.0934621
0.0671515
0.0939735
0.0828917
0.0870452
0.0548069
0.0981284
0.0881001
0.101388
0.0864846
0.0529187
0.0949411
0.0888682
0.0509103
0.0707991
0.0539531
0.0858363
0.104258
0.087276
0.0615075
0.0626359
0.0978961
0.0889848
0.0669019
0.0766842
0.0772973
0.087169
0.0953418
0.082624
0.0776365
0.0817286
0.0701728
0.060973
0.0757531
0.0991203
0.0925467
0.0868886
0.098016
0.0949652
0.0767853
0.101891
0.0910401
0.0670997
0.0956882
0.0945821
0.081654
0.0850004
0.0501842
0.0777864
0.089175
0.0740512
0.0621464
0.0797491
0.0668736
0.0841798
0.0750601
0.080614
0.074589
0.10161
0.0934173
0.093276
0.0936911
0.0944122
0.073437
0.0445291
0.0570059
0.0848673
0.0884122
0.0398135
0.0904755
0.0648906
0.0949217
0.0996373
0.0957772
0.0940763
0.0905619
0.0984368
0.100119
0.0936569
0.0993945
0.0864501
0.0851956
0.0717021
0.0853719
0.0875713
0.0919873
0.0748207
0.0845118
0.0830429
0.0668209
0.0873605
0.0909314
0.0914938
0.0695029
0.0967343
0.10411
0.101921
0.0998334
0.0942035
0.100017
0.101218
0.10256
0.0995149
0.101221
0.0997315
0.0964982
0.100848
0.0995199
0.0966622
0.0943835
0.0998078
0.100865
0.0982557
0.0973522
0.101109
0.088242
0.088945
0.075524
0.0855469
0.0874668
0.0807725
0.0825251
0.0756287
0.0535579
0.0621886
0.0890919
0.0822156
0.0799445
0.102172
0.100364
0.0970376
0.103838
0.0992053
0.0947119
0.0994342
0.107584
0.0972338
0.100912
0.0961208
0.0965509
0.0929313
0.100568
0.0915214
0.0933407
0.0973601
0.0989471
0.0927259
0.100215
0.0999216
0.0773714
0.0854452
0.0728503
0.0842277
0.0548858
0.0858399
0.0974107
0.0991377
0.100871
0.099843
0.100833
0.0986563
0.0980091
0.101253
0.0983094
0.0945873
0.101038
0.0961967
0.092335
0.0993783
0.0980801
0.100341
0.10149
0.0903739
0.102857
0.101935
0.0909659
0.0813066
0.0962676
0.0973329
0.100911
0.0925621
0.0941911
0.106079
0.0977688
0.0983504
0.0975982
0.0957045
0.0906254
0.0957203
0.102762
0.0987271
0.0934676
0.104229
0.0979942
0.0873617
0.0625617
0.087901
0.0899571
0.0930707
0.0866385
0.0900077
0.0593469
0.0517563
0.0734676
0.0718646
0.0895842
0.0699102
0.0683615
0.0916738
0.0825551
0.0898855
0.0795673
0.0789985
0.0864601
0.0721124
0.0877272
0.0540439
0.0811357
0.0950767
0.0905383
0.0861718
0.0910305
0.063169
0.0807271
0.0991661
0.0950249
0.0834176
0.0938246
0.0762934
0.080606
0.0871788
0.0654761
0.0676688
0.0978871
0.0946913
0.0949023
0.0978592
0.0861312
0.087314
0.049167
0.0861761
0.0810683
0.0854418
0.04134
0.0599537
0.0705547
0.092266
0.0833788
0.0943135
0.0683666
0.0903421
0.0758725
0.100875
0.098099
0.099691
0.0963329
0.100026
0.0858791
0.0874032
0.0579958
0.102268
0.0980658
0.088371
0.0575336
0.0979931
0.101786
0.101943
0.103035
0.0921667
0.102308
0.0979899
0.0983878
0.102488
0.101046
0.100823
0.100048
0.101435
0.0981566
0.0992862
0.106931
0.101474
0.103116
0.0988337
0.101738
0.0981217
0.107724
0.0958374
0.0971653
0.10271
0.0974717
0.105101
0.0969089
0.0982957
0.0910781
0.0908392
0.100591
0.100516
0.101391
0.100073
0.0971799
0.091486
0.0933357
0.0943151
0.0961195
0.0996635
0.0986007
0.105513
0.060803
0.105589
0.0937902
0.0750793
0.0959627
0.0830694
0.109129
0.0591937
0.104937
0.0937295
0.094971
0.0929613
0.0920187
0.105604
0.0970836
0.0829412
0.0981017
0.103673
0.100672
0.0969562
0.105309
0.0977308
0.0861024
0.0846647
0.0974964
0.0957793
0.0988184
0.0944894
0.0629549
0.0824654
0.0937667
0.0965349
0.0963652
0.0920953
0.099348
0.087165
0.0914508
0.103161
0.104737
0.104357
0.102075
0.0700812
0.058347
0.0868488
0.0786872
0.0938146
0.0976631
0.0967968
0.0870298
0.0901891
0.0637551
0.0680363
0.0902975
0.0862752
0.07506
0.0868047
0.0638065
0.103863
0.0964504
0.101461
0.0882689
0.0795254
0.10683
0.0795128
0.0765238
0.0963265
0.0932838
0.0922158
0.0987496
0.0944139
0.0642072
0.0614392
0.0951521
0.0657148
0.0946799
0.0917542
0.102736
0.0642771
0.0962348
0.0951873
0.0972151
0.0933802
0.0922758
0.0691673
0.0617098
0.064264
0.096854
0.0972749
0.0976126
0.0884172
0.0988303
0.0881416
0.0592556
0.0937606
0.094687
0.0997083
0.0984243
0.10574
0.104063
0.092796
0.0952857
0.0994985
0.0974097
0.0914443
0.0681021
0.0639904
0.0659921
0.0825522
0.0881664
0.0862031
0.0718326
0.0639273
0.0926332
0.0937636
0.0948661
0.090553
0.0895302
0.065539
0.0812439
0.0884922
0.0916265
0.0910938
0.0884497
0.0876543
0.106108
0.0788768
0.0714374
0.0855837
0.104511
0.0685429
0.08761
0.0753023
0.090389
0.0824222
0.0849199
0.0876029
0.0696823
0.0882077
0.0751773
0.102153
0.0714444
0.103005
0.0861973
0.0706666
0.0873334
0.0661927
0.0882131
0.0866251
0.0692074
0.084807
0.0982624
0.0881264
0.100988
0.100052
0.0781608
0.0864486
0.088939
0.0853444
0.0872104
0.0865611
0.0820834
0.0888065
0.0979619
0.104018
0.0864434
0.0887085
0.0975854
0.104629
0.0844486
0.0866409
0.0691232
0.0913825
0.094512
0.0796339
0.087888
0.0896739
0.088297
0.0910605
0.0895147
0.0901236
0.0876311
0.0829134
0.086635
0.0895049
0.087481
0.0935317
0.0840108
0.0940617
0.0893463
0.091622
0.0873877
0.0646758
0.0921193
0.0940957
0.0912267
0.0881107
0.0981653
0.0876485
0.0955364
0.0908558
0.0666516
0.0919805
0.0557225
0.0884134
0.0950564
0.088879
0.0942202
0.0936225
0.09008
0.0933176
0.0949875
0.0949361
0.0937135
0.0957464
0.100423
0.100159
0.075663
0.0793428
0.0520537
0.0683477
0.0448291
0.0646456
0.0644126
0.0823639
0.0697393
0.0675441
0.0476045
0.0495681
0.0953236
0.104014
0.0938804
0.0981164
0.0917132
0.0968323
0.1092
0.0931442
0.0900752
0.102116
0.106744
0.09695
0.0983136
0.0989583
0.0545623
0.109239
0.104138
0.0938719
0.0969979
0.0887978
0.0899604
0.0709507
0.0952923
0.0893881
0.0964586
0.097266
0.0956108
0.101346
0.0664975
0.0864351
0.0945574
0.0810735
0.0980971
0.0939145
0.093765
0.0922776
0.0935213
0.0866398
0.105037
0.0670525
0.0891137
0.0908609
0.082642
0.0873729
0.0944738
0.0634516
0.0616425
0.093846
0.0705334
0.102529
0.0615664
0.0542842
0.0943561
0.100616
0.102149
0.09959
0.0751512
0.0961586
0.0617221
0.0922462
0.0908716
0.0975522
0.0957169
0.0820925
0.0922379
0.0897602
0.0853268
0.0884314
0.0961121
0.0829333
0.0956665
0.094823
0.0803576
0.089596
0.0904503
0.0901177
0.0821256
0.0760863
0.0703507
0.0885268
0.0902514
0.10098
0.102173
0.0931461
0.0914543
0.0919494
0.0727316
0.113336
0.0977559
0.0962257
0.0924288
0.098036
0.0909229
0.0991315
0.0958286
0.101433
0.0950882
0.10312
0.0927677
0.0991473
0.0996408
0.061985
0.0973955
0.0921162
0.101876
0.100179
0.0899267
0.0637532
0.0953622
0.0914395
0.100246
0.0984548