/*--------------------------------*- C++ -*----------------------------------*\
  =========                 |
  \\      /  F ield         | OpenFOAM: The Open Source CFD Toolbox
   \\    /   O peration     | Website:  https://openfoam.org
    \\  /    A nd           | Version:  10
     \\/     M anipulation  |
\*---------------------------------------------------------------------------*/
FoamFile
{
    format      ascii;
    class       volScalarField;
    location    "0.05";
    object      nut;
}
// * * * * * * * * * * * * * * * * * * * * * * * * * * * * * * * * * * * * * //

dimensions      [0 2 -1 0 0 0 0];

internalField   nonuniform List<scalar> 
115093
(
0.00997724
0.00997632
0.00997575
0.00997434
0.00997491
0.00996894
0.00996325
0.00994887
0.00997518
0.0099763
0.0099753
0.00997557
0.00997404
0.00996895
0.00996133
0.00994614
0.00997633
0.00997634
0.00997446
0.00997497
0.00997453
0.00996954
0.00996169
0.00995374
0.00997564
0.00996385
0.00997259
0.00997176
0.0099738
0.00996746
0.0099625
0.00995355
0.00995115
0.00996359
0.00997354
0.00996917
0.00996295
0.00995699
0.00997416
0.00997021
0.00996069
0.0099719
0.00997273
0.00996351
0.00991966
0.00993727
0.00997094
0.00995597
0.00997279
0.00997413
0.00997187
0.00995768
0.00994383
0.00995881
0.00997478
0.00994999
0.00997079
0.00997559
0.00997135
0.00995656
0.00994419
0.0099516
0.00980243
0.00985272
0.00989538
0.00995845
0.00997207
0.00995759
0.00991423
0.00994874
0.00993848
0.00977124
0.00984146
0.00992261
0.00995711
0.00995993
0.00996168
0.00995172
0.00994947
0.00985139
0.00996647
0.00995202
0.00991223
0.00992352
0.00971323
0.00987905
0.00987088
0.00989371
0.00983946
0.00993196
0.00996237
0.00993234
0.00992166
0.0097576
0.00992652
0.009773
0.00985604
0.00985637
0.00984645
0.00992822
0.00990925
0.00988167
0.0097478
0.00995113
0.00994464
0.00992368
0.00973348
0.00973981
0.00982758
0.00990972
0.00967517
0.00974741
0.00988481
0.00994309
0.00994972
0.00992441
0.00973199
0.00980909
0.00990196
0.00992019
0.00643633
0.00855013
0.00957333
0.00986038
0.00989884
0.00977692
0.00979179
0.00987004
0.0099387
0.00992183
0.00936767
0.00605738
0.00899189
0.00969263
0.00971601
0.00987915
0.0098608
0.00994537
0.00994998
0.00993115
0.00901356
0.00764552
0.00905945
0.00976166
0.00997562
0.00997162
0.00995682
0.00990656
0.00987529
0.00981312
0.00963411
0.00977134
0.00965267
0.00981635
0.0099651
0.00994988
0.00988528
0.00986148
0.00966285
0.00975219
0.00983342
0.0098434
0.00960413
0.0097198
0.00995982
0.00991156
0.00969971
0.00844908
0.00587061
0.0085407
0.00953694
0.0097639
0.009612
0.00968605
0.00989361
0.0097197
0.00840494
0.00607672
0.00873498
0.00578641
0.00859516
0.00965269
0.00960975
0.0097508
0.00975827
0.00863501
0.00600094
0.00877489
0.00941061
0.00896288
0.00611914
0.0085259
0.00927762
0.00978175
0.00717978
0.00664575
0.0085606
0.00951662
0.00949378
0.00940326
0.00540042
0.00872842
0.00955104
0.00981075
0.00859002
0.00758365
0.00800941
0.00930665
0.00936157
0.00512901
0.00841393
0.00962522
0.00990208
0.0099368
0.0091692
0.00660323
0.00719722
0.00887065
0.00516216
0.00839784
0.00945633
0.00981056
0.00991656
0.00991122
0.00949089
0.00840558
0.00744263
0.00768377
0.0085612
0.00955258
0.00981459
0.00960296
0.00976707
0.00965531
0.00997412
0.00996664
0.00990652
0.0098588
0.00963675
0.00843218
0.0063452
0.0056274
0.00820661
0.00952562
0.00996644
0.00989915
0.00985903
0.00958315
0.0086838
0.00583943
0.0076265
0.00835608
0.00595925
0.00872758
0.00986032
0.00961029
0.00837601
0.00601373
0.00848187
0.00745182
0.00744525
0.00830351
0.00778203
0.00894804
0.00964039
0.00852546
0.00599619
0.00727347
0.00732407
0.00743106
0.00728341
0.00883692
0.00594455
0.0087204
0.00835052
0.00601296
0.00753543
0.00891997
0.00948055
0.00930347
0.00646724
0.00475551
0.00826691
0.00969268
0.00864542
0.00802788
0.00882684
0.00949613
0.00954167
0.00937838
0.00703476
0.00854902
0.0090397
0.00964255
0.0090048
0.0080294
0.00922513
0.00955993
0.00927895
0.00692555
0.00545314
0.00905394
0.0095834
0.00984252
0.0026222
0.00389614
0.00298346
0.0083204
0.00850039
0.00507397
0.00885409
0.00979044
0.00993079
0.00993989
0.00654677
0.00377765
0.00355699
0.00744078
0.0049714
0.00871909
0.00977032
0.00984366
0.00984744
0.00952245
0.00996093
0.00991224
0.00987736
0.00966278
0.00873692
0.00581964
0.00738126
0.00814386
0.00587346
0.00860774
0.00985248
0.00974458
0.00962231
0.00918175
0.00608875
0.00710517
0.00529531
0.00251408
0.00702748
0.0045076
0.00837654
0.00958714
0.00860908
0.00575496
0.00820696
0.00716468
0.00518599
0.00297821
0.00287922
0.00643829
0.00490563
0.0086755
0.00889475
0.00601469
0.00687036
0.00575032
0.0028125
0.00330151
0.00347499
0.00227
0.00733169
0.0043839
0.00839583
0.00576211
0.00665275
0.00551725
0.00229445
0.00138181
0.0015045
0.00348774
0.00600062
0.00548416
0.0087326
0.00916833
0.00712691
0.00560434
0.00252946
0.00176606
0.00143471
0.00116381
0.00576605
0.00434681
0.00835687
0.00973098
0.00980122
0.00307059
0.00273781
0.0014703
0.0014126
0.00313838
0.0023119
0.00482625
0.00888708
0.00951676
0.00985384
0.0098642
0.00142916
0.00112511
0.00161869
0.00122223
0.00675055
0.00520082
0.00883513
0.00986061
0.00990385
0.00992157
0.00990952
0.00193888
0.00244638
0.00462345
0.00893677
0.00987853
0.00981486
0.00984228
0.00952469
0.00995949
0.0099223
0.0099396
0.00973243
0.00884393
0.00669194
0.00672001
0.00816216
0.00573332
0.00866926
0.0098582
0.00979356
0.00971696
0.00917526
0.00684924
0.00649027
0.00319411
0.00282265
0.00606944
0.00434022
0.00852152
0.00958701
0.00863781
0.00627074
0.00813857
0.00632853
0.00315818
0.00154968
0.000523169
0.00237706
0.00461382
0.0084514
0.00888604
0.00607266
0.00732201
0.00614829
0.0032287
0.00133321
0.000301685
0.0010861
0.00604992
0.00493618
0.00853317
0.00580031
0.00721089
0.00567053
0.00312564
0.000749101
0.000101827
0.000667687
0.00187994
0.00463084
0.00879828
0.00924066
0.00783396
0.00571878
0.00315722
0.0014332
0.000264932
0.000414602
0.00254047
0.00541889
0.00853013
0.00974919
0.0098139
0.00399494
0.00327774
0.00415501
0.00141762
0.00105417
0.00289858
0.00469416
0.0089246
0.00951022
0.0098472
0.00986537
0.000788213
0.000865723
0.000743258
0.000888385
0.00230709
0.00495255
0.00882011
0.00984339
0.0099076
0.00992627
0.00991539
0.000286706
0.00289211
0.00437219
0.00881088
0.00982548
0.00970214
0.0097983
0.0096934
0.00996965
0.00994876
0.00989345
0.0096374
0.00867942
0.0064036
0.00696384
0.00547992
0.00806163
0.00960873
0.00996443
0.00991238
0.00978008
0.00888808
0.00671196
0.00701349
0.00850667
0.00821162
0.00508683
0.00858427
0.0090789
0.00987762
0.00970785
0.00858281
0.00636292
0.00683585
0.00506193
0.00260407
0.00326542
0.00655459
0.00374344
0.00806042
0.0097197
0.00857555
0.0061415
0.0068225
0.00502149
0.00280323
0.00371895
0.00634394
0.00603441
0.00854875
0.00907612
0.00884471
0.00606568
0.00519752
0.00275068
0.00299023
0.00330243
0.00260763
0.00499118
0.00820314
0.00972343
0.00970511
0.0076438
0.00741061
0.0048538
0.00391404
0.00449773
0.00242436
0.00491289
0.00859592
0.00937199
0.00983228
0.00986876
0.00326925
0.00324765
0.0026648
0.00292871
0.0052489
0.00251994
0.00491842
0.00838231
0.00980334
0.00986864
0.00991815
0.00990034
0.000804021
0.000774294
0.00123706
0.00517743
0.0030435
0.00461385
0.00849698
0.00957763
0.00989387
0.00992239
0.00991658
0.00990563
0.00128546
0.00823258
0.00904325
0.00970105
0.00997377
0.00996519
0.00993156
0.00984976
0.00980502
0.00966785
0.00950338
0.00970118
0.00956624
0.00983814
0.00996108
0.0099391
0.00986774
0.00953928
0.00829089
0.00632118
0.00692607
0.00522566
0.00797011
0.0096244
0.00967358
0.00996102
0.00992091
0.0097254
0.00842088
0.00652604
0.00785047
0.00784562
0.00841608
0.0046799
0.00845065
0.00908196
0.00989805
0.00972732
0.00844897
0.00658181
0.00762213
0.00911418
0.00832924
0.00590705
0.00808699
0.00966863
0.00967837
0.00967141
0.00859599
0.00640298
0.0078555
0.00891856
0.00920161
0.00687437
0.00849351
0.00930522
0.00985931
0.00987177
0.00757969
0.00739785
0.00771178
0.00921565
0.00893752
0.00690876
0.00832304
0.0097648
0.0098413
0.00991406
0.00990779
0.00832244
0.00854824
0.00820436
0.00712063
0.00873468
0.00692958
0.00842056
0.0095686
0.00991777
0.00992556
0.00991615
0.00989715
0.00296646
0.0028018
0.00246967
0.00860351
0.00767076
0.00890554
0.00970778
0.00988685
0.00993015
0.00994495
0.00993252
0.00991496
0.00297689
0.00121241
0.00338857
0.00997639
0.00997577
0.00997392
0.00995904
0.00992753
0.00995736
0.00990726
0.00985673
0.00977681
0.00997481
0.00996927
0.00994221
0.00987911
0.00988815
0.00983057
0.0096973
0.00979875
0.00969406
0.0099652
0.0099515
0.00991385
0.00990105
0.00968281
0.00992831
0.00984965
0.00984442
0.00949087
0.00995596
0.00992361
0.00991775
0.00976525
0.0099361
0.00993624
0.00984953
0.00974924
0.00966891
0.00991619
0.00989869
0.00975072
0.00994107
0.00993656
0.00992776
0.00969366
0.00983042
0.00983072
0.00973071
0.00964572
0.00982043
0.00988408
0.00990419
0.00978846
0.00984805
0.00993371
0.00992796
0.00755621
0.00623714
0.00859138
0.00957936
0.00969269
0.00989119
0.00990245
0.00993115
0.00993408
0.00883987
0.00887242
0.00600143
0.00889308
0.0096705
0.00990508
0.00993364
0.00997721
0.00997612
0.00997552
0.00997319
0.00997043
0.00995845
0.00995458
0.00993413
0.00992827
0.00997648
0.00997682
0.00997574
0.00997197
0.00995975
0.00996631
0.0099429
0.00990772
0.00986556
0.00997674
0.00997383
0.00996263
0.00994332
0.00997108
0.00996639
0.00994133
0.00988426
0.00985361
0.00997513
0.00997039
0.00995829
0.00997262
0.00996879
0.00996712
0.00994638
0.00991208
0.00986655
0.00997048
0.00995492
0.0099748
0.00997414
0.00996935
0.00995703
0.00994093
0.00994494
0.00994299
0.00997548
0.00997316
0.00994583
0.00996886
0.00996931
0.00995985
0.00993102
0.00993253
0.00993274
0.00986497
0.00980336
0.00986301
0.00990932
0.00994882
0.0099547
0.00996037
0.00995593
0.00994776
0.00994285
0.00994079
0.00977257
0.00984356
0.00997551
0.00997266
0.0099713
0.00996473
0.00995964
0.00994674
0.00993708
0.00997608
0.00997531
0.00997179
0.00996891
0.00996292
0.00995001
0.00993378
0.00997517
0.00997198
0.00997224
0.00996678
0.00996139
0.00994472
0.00993565
0.00997377
0.00997448
0.00997319
0.00996878
0.00996405
0.00995248
0.00993916
0.0099762
0.0099738
0.00997295
0.0099646
0.00996147
0.00995514
0.00994514
0.00997159
0.00996718
0.00997313
0.00997
0.00996318
0.00995589
0.00994699
0.00830271
0.0065503
0.00705875
0.00551972
0.00319817
0.00267055
0.00289593
0.00308074
0.00415033
0.00109042
0.00309674
0.00598694
0.00341543
0.00130484
0.00242654
0.000151659
0.00250257
0.00348567
0.00285459
0.00137006
0.00107476
0.000386835
0.00184744
0.00449427
0.00441384
0.00384085
0.00523439
0.00416631
6.23673e-05
0.00291543
0.0038763
0.00266197
0.000259587
0.00158477
0.00268615
0.00318683
0.0028251
0.00128063
0.000614311
0.000327691
0.000369065
0.00100174
0.00142462
0.00101972
0.00088639
0.000330586
8.07133e-05
0.000232461
0.00221304
0.00333968
0.00108001
0.00336224
0.00109013
0.00176894
0.00110334
0.00139226
0.000993685
0.00140318
9.92181e-05
0.000639009
0.00244748
0.00304942
0.0035882
0.00276382
0.00147236
0.00136979
0.00288626
0.00534516
0.000987698
0.00319454
0.0030985
0.00123236
0.00167579
0.000945026
0.00131509
0.00113593
0.00423848
0.00194684
0.00142866
0.00109447
0.001415
0.00107532
0.00167706
0.000351032
0.00103984
0.00128754
0.00307745
0.000572249
0.000450619
0.00202459
0.00128706
0.00122665
0.00069856
0.00113378
0.000760309
0.000740673
0.00116845
0.00240916
0.000728329
0.00016357
0.00110278
0.00202136
0.0037192
0.00043737
0.000234701
0.0030132
0.00218112
0.000217349
0.00354119
0.00303795
0.000378983
0.00396864
0.00620234
0.000365644
0.000121018
0.000294782
0.00344418
0.00468614
0.00582956
0.00398661
0.000120687
0.000219449
0.000291337
0.00281424
0.00218169
0.00137131
0.00121331
0.000258721
0.000640951
0.00643016
0.00255427
0.00166227
0.000981584
0.000688348
0.0027718
0.00161532
0.000816555
0.00337317
0.00271582
0.000678875
0.000683119
0.00294603
0.00127188
0.00197145
0.00320398
0.00309353
0.000718871
0.00126459
0.00044646
0.00494501
0.00112069
0.00152318
0.00125027
0.000683693
0.000788802
0.000749151
0.000899345
0.000723876
0.000877296
0.000638961
0.000148129
0.000934861
0.00107142
0.00139751
0.000186712
0.00144231
0.00367631
0.00695865
0.0016754
0.00475917
0.0058244
0.00102276
0.00121209
0.000676851
0.00504085
0.00315453
0.00136107
0.00121052
0.00126306
0.00415216
0.00359514
0.00140835
0.00112278
0.00135836
0.00143109
0.00167712
0.00147219
0.0011831
0.00193736
0.00136286
0.0040779
0.00302159
0.00105662
0.00287065
0.00789818
0.00952728
0.00780246
0.00461107
0.00271939
0.00419422
0.0026709
0.00804946
0.0095407
0.0079522
0.00520156
0.00294893
0.0044559
0.0025301
0.00786524
0.00909747
0.00772149
0.00530677
0.00223723
0.00398901
0.00345911
0.0054118
0.00329129
0.00573361
0.00346014
0.00325432
0.00134855
0.00298117
0.00210874
0.00287849
0.00269844
0.00268956
0.00344073
0.00263659
0.000685397
0.00255961
0.00146253
0.000988708
0.0030637
0.00261258
0.00117059
0.000354983
0.00239174
0.00351183
0.00284272
0.000493422
0.00102984
0.000497448
0.00259323
0.000913532
0.00328148
0.00110508
0.00360559
0.00160151
0.00154616
0.000102588
0.000309351
0.00128902
0.00142235
0.00116391
0.00138802
0.000730615
0.000394788
0.00262565
0.00121899
0.00284155
0.000315247
0.000431078
0.000280886
0.00190537
0.000958663
0.00148378
0.00328677
9.28582e-05
0.000259265
0.000956236
0.00368589
0.000544689
0.00132481
0.0014665
0.000507186
0.00118736
0.000567714
0.000406718
0.00277894
0.00315041
0.00413809
0.000820374
0.00346392
0.00320524
0.00205467
0.00148836
0.000741366
0.00163897
5.88345e-05
0.00128874
0.000753598
0.00136516
0.000805389
0.00212116
0.00207975
0.0016823
0.0006852
0.00252835
2.34517e-05
0.000344462
0.0013525
0.00161814
0.00154547
0.00367027
0.00316957
0.00257106
0.000536973
0.00382036
0.00484363
0.00321443
0.000615485
0.000735054
0.00287088
0.00255112
0.000483895
0.00296344
0.00286871
0.00310231
0.00445527
0.00328909
0.00133193
0.000190003
0.0030392
0.00283905
0.00356063
0.00385789
0.00107814
0.000409917
0.00173973
0.00658399
0.00324619
0.00543159
0.00263562
0.00113318
0.00116228
0.000248382
0.00285549
0.00252511
0.00524851
0.000919164
0.000328405
0.000759587
0.000136576
0.00100642
0.00203046
0.000611499
0.000346437
0.000362395
0.00192496
0.00504167
0.00353605
0.00344061
0.00289404
0.00137425
0.00150041
0.00324422
0.00439311
0.00346177
0.000999221
0.000659911
0.000849549
0.000804485
0.0011853
7.17004e-05
0.000598161
0.00088955
0.00035185
0.0009014
0.00331961
0.00139989
0.00107935
0.00355591
0.00283672
0.00156747
0.00140162
0.00347224
0.00313258
0.0011934
0.00224308
0.000653251
0.000490246
0.000203074
0.000996726
0.001638
0.00189877
0.000739137
0.000590054
0.00231504
0.00156693
0.00185256
0.00391132
0.00299039
0.000905224
0.000213481
0.000704614
0.000145534
0.000501343
0.000305324
0.000852382
0.00214619
0.000527933
0.000200715
0.00257698
0.00173315
0.00111236
0.00143069
0.00320004
0.00327395
0.00475644
0.00264781
0.00946235
0.00775173
0.00952302
0.00779072
0.00345245
0.00515329
0.00272048
0.00947622
0.0078365
0.00951912
0.00792121
0.00136744
0.00219305
0.0016403
0.00124026
0.00292813
0.003794
0.00347683
0.00254535
0.00248644
0.00150113
0.00128583
0.00312291
0.00225674
0.00330638
0.00332802
0.00351747
0.00424617
0.00293713
0.00889146
0.00838115
0.00585288
0.0067891
0.00066487
0.000764472
0.00123656
0.00143772
0.000684665
0.000621831
0.00112156
0.0013265
0.00151147
0.000677201
0.00210056
0.00191616
0.00272118
0.00288459
0.00129212
0.00329514
0.000526856
0.000926887
0.00368603
0.00360037
0.00499809
0.00249841
0.00531493
0.00259073
0.00479066
0.0029916
0.00884699
0.00614767
0.00282951
0.00221497
0.00278509
0.0053957
0.00295333
0.00886054
0.00697733
0.00247878
0.00439697
0.00355889
0.000748182
0.00144717
0.00148576
0.000703888
0.00147502
0.00185516
0.000789394
0.00128248
0.00161223
0.000764056
0.00124224
0.00182683
0.000622948
0.00170936
0.00128502
0.00101327
0.00101051
0.00186119
0.000690185
0.00155844
0.00164318
0.00156239
0.00165372
0.0024138
0.00166203
0.00188596
0.00168254
0.00294725
0.00136549
0.00220277
0.00116177
0.00245708
0.00164352
0.00170932
0.00160933
0.00227008
0.00134449
5.65445e-05
0.0011721
0.00151339
0.00125386
0.00171359
0.000811095
0.000141405
0.00141196
0.00169963
0.00088341
0.00136997
0.00161466
0.000226114
0.00157005
0.00136759
0.000912839
0.00170565
0.00105617
0.00126709
0.000136854
0.00157766
0.00106107
0.000412321
0.00140351
0.00125902
0.000742382
0.000210162
0.00148132
0.00132952
0.000391125
0.00186457
0.00105251
0.000168731
0.000211901
0.00108611
0.0019296
0.000331
0.000274346
0.00142414
0.00138251
0.000398719
0.00150275
0.000328788
0.000223173
0.000328171
0.00104363
0.00153983
0.000336486
0.00158281
0.000404927
0.000213919
0.000858692
0.00071452
0.000769421
0.000209485
0.000589696
0.000707122
0.00017882
0.000776279
0.000292921
0.000266758
0.000170297
6.89345e-05
0.000304367
0.000160815
0.00028796
6.58861e-05
0.00161925
3.37467e-05
0.000638733
0.000441218
0.000660795
0.00047575
0.0017976
0.000466142
0.00155296
0.00114785
0.000576417
0.00157221
0.000674267
0.000720736
0.000438576
0.00142386
0.00138856
0.000323924
0.00137997
0.000635267
0.000801603
0.000532614
0.00107957
0.00162824
0.000719546
0.00158397
0.00069292
0.000672118
0.000269161
0.00126024
0.000863784
0.000690073
0.000700554
0.000622103
0.000192953
0.000279552
0.000802715
0.000137602
0.000711171
0.000467462
0.000178119
7.11824e-05
0.000586762
0.000601805
0.000421939
0.00020198
0.000569039
0.000226463
0.00046373
0.000429188
0.00128997
0.00139143
0.00148875
3.91764e-05
0.00141344
4.32217e-05
0.00124906
0.000868317
0.000139398
0.000198869
0.000848268
6.73834e-05
0.00158963
0.00110404
0.000339293
0.00161327
0.000489951
0.000434723
6.99584e-05
0.00137724
0.00141444
0.00143836
0.000225558
0.000185384
0.00109442
0.00173764
0.000531366
0.00168103
0.000233004
0.00166247
0.000394149
0.000151188
0.00048784
0.000241309
0.000293678
0.000412301
4.1054e-05
0.000156115
0.000429044
3.28663e-05
0.000482429
2.87556e-05
0.000359248
4.22199e-05
0.000500185
0.000615507
0.000704334
0.00101373
0.000349637
0.00105373
0.000660223
0.000537116
0.000619672
0.00153593
9.82514e-05
0.00133787
0.000559249
0.00165084
0.000691279
0.00154379
0.000739513
0.00168725
0.000938683
0.000933981
0.000911454
0.000763249
0.00179342
0.0014968
0.000762417
0.00177593
0.000121131
0.0014999
0.00133249
0.000649164
0.00120257
0.00179538
0.000870478
0.000727728
0.000640939
0.000782381
0.00150202
0.00146021
0.0022784
0.00070712
0.00187947
0.00201494
0.00250142
0.0021184
0.00244407
0.000915856
0.000612434
0.00220245
0.0025116
0.000700269
0.000211083
0.00224128
0.000725204
0.000180573
0.000309006
0.000260813
0.000346526
0.000524213
0.00117101
0.00110829
0.000311596
0.00035009
0.000220241
0.00164323
0.00137471
0.000326184
0.000727595
0.0017484
0.000210253
0.000995058
0.00105175
0.00074222
0.001657
0.000941105
0.00149102
0.000207269
0.000477825
0.000609429
0.000771333
0.000665607
0.0021525
0.000892055
2.44353e-05
0.00203804
0.000212183
0.00147154
0.00171779
0.00266324
0.000778935
6.06372e-05
0.00160792
0.000198585
0.00138752
0.00211487
0.00262601
4.71544e-05
6.06446e-05
0.00119953
0.000145089
0.00148977
0.00285673
0.000345971
0.000742927
0.000194885
0.00159738
0.00260442
0.000674016
0.00025247
6.6597e-05
0.000801762
0.000660754
0.00047005
0.00026307
0.000165798
0.000563893
0.000467292
0.000471643
0.000422803
0.00124187
0.0013658
0.00125134
0.000583941
0.000607229
0.00130791
0.000773617
0.000860157
0.000308545
0.000685589
7.39898e-05
0.000862701
0.000594225
0.000687978
0.000655138
9.89356e-05
0.000655242
7.22577e-05
0.000834616
0.000583005
0.000835353
0.000319943
0.000107047
0.00106668
0.000159343
0.000598101
0.000578342
0.00151978
0.00114694
0.00369587
0.00309126
0.00205159
0.00106461
0.00526388
0.00134558
0.000676074
0.00180484
0.00143812
0.0014244
0.000773774
0.00107131
0.000650291
0.000312723
0.00151426
0.00134754
0.00160751
0.000528687
0.00109893
0.00132663
0.00031441
0.00158733
0.00108781
0.00125428
0.000300411
0.00146044
0.00106138
0.000288277
0.00151575
0.000288178
0.00126449
0.000767019
0.00124153
8.33253e-05
0.00144923
0.00158178
0.000270514
0.00105288
0.000739712
0.00105792
7.94331e-05
0.00153058
0.00140528
0.00133375
0.0014828
0.000297942
0.0011157
0.0012593
0.000401564
0.00138644
0.000280192
0.00123388
0.000815384
0.00126611
0.000378673
0.00130836
0.0014264
0.000773878
0.000944899
0.00128054
0.00113947
0.000425521
0.00145862
0.000707121
0.000390486
0.000708963
0.00110671
0.000494218
0.000626842
0.000114281
0.000833294
0.00244009
0.000365106
0.000651877
0.00066602
0.000362057
0.000344758
0.00113801
0.000622428
0.00202614
0.00116021
0.00151262
0.000780285
0.00178148
0.000304563
0.000156943
0.000879194
0.000130027
0.000111558
0.00106599
8.84958e-05
0.000978202
0.000793088
0.000780632
0.000547654
8.96987e-05
0.000675587
0.000351092
0.000732609
0.000822138
0.000366267
0.000452473
0.00069554
0.00283674
0.000866372
0.000188008
0.000294582
0.00152788
0.000830026
0.000199822
0.000743132
0.00114938
0.00148921
0.000584743
0.000114515
0.000457066
0.000232353
0.00131695
0.00161123
0.000764474
0.000640626
0.000479561
0.00118525
0.00067133
0.000796929
0.00133736
0.00114688
0.00463003
0.0014424
0.000627478
3.82052e-05
0.000659803
0.000317937
0.000989153
0.00134194
0.000684068
0.000770551
0.00119861
0.00165963
0.000642279
0.000762594
0.000719021
0.000784101
0.000812003
0.00120758
0.000471069
0.00150244
0.00136905
0.00160087
0.000107623
0.00115369
0.00137897
0.000115558
0.0010357
0.00152641
0.00120445
0.000108786
0.00160633
0.000683637
0.00161179
0.00102768
0.00150578
0.00129675
0.000772715
0.000836293
0.000823524
0.000528927
0.000629642
0.00136671
0.000123561
0.00152534
0.0014182
0.00137474
0.000379064
0.0011005
0.00186399
0.000592494
0.00102923
0.0016898
0.00125041
0.000460989
0.00150645
0.000366171
0.000311767
0.00165689
0.00206644
0.00149602
0.00163312
0.00219231
0.00195998
0.000480326
0.00166525
0.00164988
0.000230413
0.000623287
0.00213406
0.000319222
0.00010955
0.0012403
0.00155133
0.000679249
0.00108929
0.00163896
0.00713263
0.0075679
0.00231236
0.00358202
0.00646606
0.00945046
0.00699974
0.00238093
0.00417737
0.00364432
0.00288485
0.00391189
0.00369269
0.00754843
0.00919994
0.00777306
0.00359569
0.00304085
0.002972
0.00361112
0.00780764
0.0093375
0.00777857
0.00258359
0.0026355
0.00377771
0.00307691
0.00691291
0.00941305
0.00737249
0.00355701
0.00256128
0.00357941
0.00327472
0.00777577
0.00916531
0.00783118
0.0026395
0.0036155
0.00363408
0.00295615
0.00777391
0.00949005
0.00751835
0.00445286
0.00255322
0.00398727
0.00269789
0.00752465
0.00240552
0.00690504
0.00314174
0.00607938
0.00277631
0.00237731
0.00523819
0.00217622
0.0047514
0.00387778
0.00677464
0.00284396
0.00257571
0.0027469
0.00304746
0.00356064
0.00183275
0.00219557
0.00521983
0.00661811
0.0015929
0.00540772
0.00164894
0.00166145
0.002488
0.00341987
0.00244777
0.00299117
0.00060755
0.000620509
0.000673847
0.00208153
0.00272292
0.001896
0.00570248
0.00226589
0.00284705
0.00128358
0.00220612
0.00272582
0.0031439
0.00576641
0.00258712
0.00330391
0.00285234
0.00253284
0.00268307
0.00400645
0.000781276
0.00338146
0.00318627
0.0023798
0.00220638
0.00269965
0.00259624
0.00538475
0.00236798
0.00323021
0.00164533
0.000405033
0.00137186
0.00150934
0.00112005
0.00139083
0.000676195
0.000619107
0.00134485
0.00142187
0.000519672
0.00021748
0.000700227
0.000632713
0.00135466
0.00341463
0.00313234
0.00243576
0.000328127
0.00338064
0.00504138
0.00300743
6.46426e-05
0.00134063
0.00138279
0.00152882
0.001407
0.00056241
0.000358097
0.000408748
0.000167639
0.000544667
0.000392313
0.000711287
0.00340052
0.00371566
0.0062765
0.00306902
0.0021529
0.00260373
0.00132978
0.00623932
0.00518527
0.00551216
0.00204134
0.00251748
0.00113782
0.00106807
0.00163847
0.000308011
0.00134458
0.00113082
0.00198637
0.00237315
0.00130426
6.75058e-05
0.000515111
0.00157008
6.07267e-05
0.00018896
0.00180194
0.00195468
0.00123291
0.00168387
0.000389978
0.00251986
0.00296861
0.00235775
0.00325408
0.00260801
0.00307738
0.0040715
0.000318716
0.000783851
0.000606636
0.000599098
0.00103874
0.000706809
0.00315979
0.00395887
0.00260543
0.00322648
0.00271095
0.00305742
0.00415879
0.000114174
0.000699679
0.000565263
0.000567875
0.000508503
0.000680104
0.00296386
0.00225427
0.0042811
0.0030548
0.00262503
0.00317588
0.00459952
0.000808029
0.000685573
0.000923575
0.000856507
4.91449e-05
0.00106045
8.52633e-05
0.00100786
0.000820146
0.000285455
0.000332822
0.000875432
0.000564685
0.00344045
0.00422212
0.00271697
0.00372257
0.00281115
0.0028809
0.00431539
0.0032464
0.00227285
0.00164051
0.00236338
0.00112346
0.00109029
0.00200191
0.00425008
0.00357833
0.00414649
0.00943527
0.00762154
0.00950148
0.00767052
0.00229556
0.00347346
0.00263131
0.00944422
0.00726308
0.00929559
0.00701924
0.00249359
0.00100519
0.00358507
0.00591416
0.00634703
0.00273307
0.00251475
0.000714341
0.000716565
0.000196152
0.00156989
0.00176094
0.000298081
0.000725087
0.001098
7.1626e-05
0.00174908
0.000743958
0.00124977
0.00108591
0.00214386
0.00280541
0.00113554
0.00339646
0.00341846
0.00528489
0.00323478
0.0053985
0.00131245
0.0035378
0.00737784
0.00170568
0.00610481
0.00104922
0.00171255
0.00155069
0.00129606
0.00268661
0.00136604
0.00146092
0.00497283
0.00106173
0.00205232
0.000801341
0.000407714
0.000809234
0.000339636
0.00208459
0.00491499
0.00385646
0.00143993
0.00299843
0.00121071
0.00144014
0.00114543
0.00492602
0.00118282
0.00177641
0.00296204
0.00126205
0.00114822
0.000844862
0.000424119
0.000819621
0.000456532
0.000774836
0.000559327
0.000696906
0.000596903
0.000771996
0.00048469
0.0010959
0.00160657
0.00152464
0.000760535
0.00150345
0.00134134
0.0026635
0.00458922
0.00188366
0.00200578
0.00452457
0.00165065
0.00196952
0.000293228
0.000337025
0.000309679
0.000299585
0.00170062
0.00163658
0.00143861
0.0019916
0.00226473
0.00636231
0.00398664
0.00137048
0.00513963
0.00163302
0.0011176
0.000316272
0.000347052
0.000367145
0.000305577
0.00105171
0.00061799
0.000805814
0.00076061
0.00115685
0.00124127
0.00146132
0.000744937
0.000754638
0.00142179
0.000358735
0.000294672
0.000798934
0.000954007
5.89977e-05
0.000795514
0.000798018
0.000562474
0.000492834
0.000920901
0.000925808
0.00135785
0.0026151
0.00136095
0.00118869
0.00102151
0.00137901
0.000572165
0.00075693
0.000511883
0.000638994
0.000252923
0.000952814
0.000588204
0.000451217
0.00087976
0.000886069
0.000658181
0.000255175
0.000921782
0.000950213
0.000318183
0.000379615
0.00151099
0.00101582
0.000717945
0.00151923
0.000724951
0.000392964
0.000120252
0.000948322
0.000660443
0.000633599
0.000814719
0.000532141
0.000117357
0.000396684
0.000933624
0.00067008
0.000215827
0.000938341
0.000730056
0.000212269
0.000297327
0.000132399
0.000181893
0.00119875
0.00106687
0.00156998
0.000292052
0.00188278
0.000647177
0.000609939
0.0011879
0.00120941
0.00413402
0.000834944
0.0037241
0.000634776
0.00129622
0.00130087
0.00150096
0.00134521
0.000567095
0.00167851
0.000591759
0.00146575
0.00028207
0.000435853
0.000230508
8.64283e-05
0.000651367
0.000377962
0.000356179
0.000459688
0.000408121
0.00012114
0.00490751
0.00551163
0.00140943
0.00172947
0.00285027
0.00588857
0.00150137
0.00106705
0.00176793
0.00330573
0.00167181
0.00151864
0.00505775
0.00130116
0.003097
0.00174585
0.00468099
0.00171951
0.00348818
0.00673324
0.00138152
0.00390153
0.00180102
0.00392424
0.00156549
0.0061155
0.00150976
0.00320504
0.00180897
0.0013128
0.00103654
0.00131383
0.000148289
0.00134304
0.00115862
0.00173532
0.00153299
0.000306835
2.56301e-05
0.00123603
0.00167193
0.00161915
0.000222799
0.00157284
0.000312026
0.0012378
0.000655107
0.000133575
4.59618e-05
0.000218232
0.000183815
0.000812104
0.00159197
0.00170839
0.000968934
0.00141547
0.000485258
0.00103253
0.000659712
0.00147237
0.00109084
0.000684546
0.00133581
0.000283799
0.00155631
0.000782749
0.00083464
9.84141e-05
0.0018638
0.00114164
0.0013752
0.000790464
0.000121227
0.00137604
0.00105151
8.3789e-05
0.00042324
0.000113047
0.000925417
0.00174247
0.00085444
0.000223148
0.000307641
0.00220626
0.00107047
0.000285759
0.000529367
0.000487877
0.000739931
0.00089993
0.000588738
0.000458945
0.000670912
0.000373579
0.000338862
0.000423722
0.00173694
0.00103058
0.000570203
0.00173189
0.00108267
0.000428368
0.00184714
0.00137363
0.000244809
0.00144086
0.00123879
0.000695829
0.000683705
0.000131802
0.000547863
0.000915925
0.000442243
0.000288783
0.000586101
0.000376905
0.000681039
0.000455024
0.000618994
0.000451049
0.00273415
0.00144499
0.00171547
0.00140175
0.00161638
0.000432903
0.000152021
0.000247276
0.000681872
0.000808643
0.0001208
0.0012593
0.000272154
0.00242686
0.00176329
0.00190363
0.00203016
0.00123432
0.00485193
0.00118328
0.00197547
0.0046368
0.000569302
0.000674964
8.90921e-05
0.000526904
0.00068101
0.000463658
0.000305613
0.000532706
0.000630559
6.96995e-05
0.000534042
0.000700956
0.000446498
0.000151418
0.00192084
0.00199198
0.00607749
0.00460745
0.00127837
0.00180802
0.00660373
0.00221389
0.00149033
0.006407
0.00511095
0.00122208
0.00209919
0.00528493
0.00205834
0.00122296
0.00434531
0.00696346
0.00159232
0.00198737
0.00669387
0.000349994
0.000694558
7.74461e-05
0.000525934
0.000722585
0.000357102
7.87505e-05
0.000354738
0.000174021
0.000192809
0.000692401
0.000629577
0.000444627
0.000602346
0.00136502
0.00100412
0.0014199
0.00181504
0.00103238
0.00127877
0.000601517
0.00154496
0.00160514
0.00110276
0.00213104
0.000796153
0.00152911
0.000415488
0.000706933
0.00121432
0.00145697
0.000727959
0.000573057
0.00152813
0.000377109
0.000618203
0.000294693
2.04436e-05
0.000130253
6.39691e-05
0.0012763
0.00113875
0.0050934
0.0055753
0.00141756
0.00172971
0.00364765
0.00187996
0.00118324
0.00102365
0.00141805
0.00102797
0.000705748
0.00153939
0.00128212
0.00275782
0.00160468
0.000827719
0.00299081
0.00109586
0.000485381
0.000522883
0.000736696
0.000980069
0.000721351
0.00102705
0.00124065
0.00333194
0.00142781
0.00159809
0.000712072
0.00102772
0.000595332
0.000807602
0.0011018
0.00175887
0.000647454
0.000632667
0.00170277
0.000431232
0.000149096
0.000914045
0.00115461
0.00151239
0.000404551
0.000931005
0.000131223
8.02876e-05
0.00027175
0.000335617
0.0010018
0.000287928
0.000394903
0.00111699
0.000696048