/*--------------------------------*- C++ -*----------------------------------*\
  =========                 |
  \\      /  F ield         | OpenFOAM: The Open Source CFD Toolbox
   \\    /   O peration     | Website:  https://openfoam.org
    \\  /    A nd           | Version:  10
     \\/     M anipulation  |
\*---------------------------------------------------------------------------*/
FoamFile
{
    format      ascii;
    class       volScalarField;
    location    "0.05";
    object      omega_0;
}
// * * * * * * * * * * * * * * * * * * * * * * * * * * * * * * * * * * * * * //

dimensions      [0 0 -1 0 0 0 0];

internalField   nonuniform List<scalar> 
115093
(
9.75941
9.76061
9.76134
9.76315
9.76236
9.76999
9.7771
9.79545
9.76209
9.76062
9.7619
9.76149
9.76342
9.76992
9.77967
9.79907
9.76069
9.76072
9.76307
9.76237
9.76286
9.76924
9.77927
9.78926
9.76162
9.77887
9.76553
9.76643
9.7637
9.77177
9.77795
9.78938
9.79367
9.77717
9.76414
9.76969
9.77762
9.78514
9.76343
9.76859
9.7813
9.76638
9.76725
9.77695
9.83551
9.81074
9.76765
9.78711
9.76523
9.76352
9.76629
9.78437
9.80185
9.78274
9.76259
9.79681
9.76795
9.76161
9.7669
9.78576
9.80149
9.79265
9.95166
9.92557
9.86744
9.78448
9.766
9.7845
9.84216
9.79566
9.79916
9.99686
9.94003
9.83109
9.78551
9.7818
9.77874
9.79138
9.79043
9.89713
9.77333
9.79212
9.84466
9.83073
10.0724
9.88917
9.89885
9.86756
9.93828
9.81569
9.77873
9.81819
9.83383
10.0136
9.81314
10.0077
9.91844
9.91744
9.92873
9.81934
9.84823
9.88565
10.0268
9.78777
9.79587
9.81909
10.0495
10.0795
9.95648
9.84527
10.0865
10.0375
9.87464
9.79931
9.78986
9.819
10.0517
9.98457
9.85738
9.83092
15.7574
12.0124
10.3122
9.90753
9.85073
10.0082
10.005
9.90006
9.80812
9.82842
10.4238
17.011
11.2054
10.1294
10.0863
9.88985
9.91258
9.80061
9.79362
9.81667
10.8573
13.0079
11.1074
10.0193
9.7616
9.76677
9.78596
9.85292
9.89351
9.97798
10.178
10.0273
10.1957
9.96876
9.77522
9.79506
9.88061
9.9141
10.142
10.031
9.93126
9.92603
10.2074
10.1065
9.78186
9.84509
10.1381
12.2018
17.4436
12.0251
10.3539
10.0368
10.2066
10.1512
9.86882
10.1084
12.2689
16.6918
11.2309
18.0296
11.8975
10.1913
10.2026
10.0632
10.0253
11.8034
16.933
11.1728
10.3631
10.9351
16.8112
12.1396
10.769
10.0187
13.8752
15.1725
11.4726
10.2502
10.2711
10.3701
19.5029
11.7259
10.476
9.98849
11.5333
13.1586
12.3592
10.4998
10.4192
20.9452
12.2563
10.2434
9.85746
9.80898
10.9106
15.3896
13.9578
11.056
20.7284
12.3367
10.4896
9.97987
9.8385
9.84299
10.273
12.0568
13.428
12.9385
12.0031
10.3514
9.97621
10.2189
10.0329
10.1917
9.76344
9.7733
9.85374
9.91675
10.2279
12.2357
15.8135
18.6356
12.6872
10.389
9.7736
9.86255
9.91816
10.275
11.7044
17.521
13.0024
11.7851
17.296
11.7803
9.91364
10.2666
12.3348
16.9204
11.6161
13.3955
13.3784
11.869
12.7443
11.3531
10.2214
12.0087
16.9715
13.7184
13.9601
13.7414
13.7517
11.1048
17.2982
11.7876
12.34
16.9012
13.175
11.0469
10.3075
10.5221
16.591
23.4305
12.5085
10.1428
11.3799
12.3291
11.1224
10.298
10.233
10.4434
14.3192
12.1188
11.1751
10.2128
10.9719
12.5473
10.6919
10.2375
10.7158
14.6613
19.2242
11.1218
10.3813
9.94107
40.1316
25.8148
35.581
11.9993
11.6295
21.1842
11.402
10.0084
9.81945
9.80566
15.3128
27.3018
28.6355
13.4487
21.6964
11.6969
9.99894
9.91173
9.92278
10.3146
9.78074
9.84578
9.89079
10.1884
11.6432
17.5883
13.4817
12.117
17.6049
12.0273
9.92507
10.0749
10.2285
10.906
16.6533
14.0798
20.5415
47.0472
14.3605
25.9625
12.3749
10.3003
11.9373
17.8517
12.0289
13.9578
20.6584
35.1254
37.2507
16.1418
22.6893
11.7663
11.3797
16.9183
14.6001
18.207
37.5569
30.7967
29.4394
51.6563
13.664
26.6731
12.339
17.8094
15.1456
18.9672
46.4365
76.8668
71.5234
29.2095
17.4769
19.0513
11.7533
10.9783
14.0586
18.5406
40.6999
58.5914
72.8984
95.8402
18.5187
26.7117
12.3467
10.0898
9.99265
33.7336
37.3941
72.3686
74.1064
33.1646
48.7485
22.7555
11.427
10.3973
9.91839
9.90216
70.9886
86.0697
62.3688
88.2228
15.3624
20.7051
11.456
9.9122
9.85347
9.82965
9.84268
51.6866
43.8446
23.7971
11.293
9.86755
9.94929
9.92959
10.3108
9.78257
9.83231
9.80864
10.0896
11.475
15.079
15.0138
12.0858
18.0595
11.8948
9.91731
10.0069
10.114
10.9239
14.717
15.6639
32.4433
38.498
17.614
27.2562
12.0462
10.3005
11.8796
16.1509
12.1506
16.1038
32.6599
68.5091
183.81
54.459
26.9339
12.2038
11.3955
16.7858
13.6191
16.9094
31.9957
76.6368
247.936
100.704
17.5299
26.8057
12.0274
17.7144
13.848
18.2728
32.4441
128.582
412.882
129.436
69.0335
23.79
11.6173
10.8433
12.636
18.115
32.1145
67.6736
260.49
185.22
54.0511
22.6933
11.981
10.0639
9.97489
25.1538
31.0467
23.7424
69.1266
88.7527
43.4715
23.1916
11.3514
10.4013
9.92544
9.89951
115.381
105.025
119.855
99.8221
54.9774
22.869
11.458
9.93588
9.84961
9.82426
9.83535
215.279
41.2227
25.2916
11.5144
9.92477
10.0858
9.98918
10.1378
9.76927
9.79636
9.86905
10.2242
11.7716
15.7387
14.2898
19.2024
13.0511
10.2669
9.77621
9.84433
10.0234
11.3866
14.9441
14.3272
11.8432
12.6911
21.0851
12.1108
11.0993
9.89109
10.1259
11.9025
15.9178
14.7393
21.5589
40.1087
33.2446
16.5843
34.8542
12.9762
10.1093
11.9021
16.5504
14.7677
21.4424
36.4606
27.7295
16.6426
18.5737
12.1765
11.1024
11.4129
16.7775
20.3024
37.8621
33.6686
31.1208
50.7988
23.8151
12.6696
10.1009
10.1272
13.0097
13.4538
21.8156
25.5876
22.9241
51.8305
21.7512
11.9633
10.6133
9.94719
9.89522
31.3499
31.6232
39.9393
34.395
19.2653
51.4148
22.2771
12.2767
9.99147
9.90108
9.83411
9.85439
127.058
124.472
83.5199
19.6552
38.0792
23.4026
12.0972
10.3055
9.86743
9.82847
9.83496
9.84616
77.4817
12.1028
11.0607
10.1341
9.76401
9.7752
9.81938
9.92872
9.99228
10.0989
10.3321
10.1141
10.321
9.93645
9.78047
9.8089
9.90314
10.3693
12.5206
15.9608
14.3343
20.3672
13.3031
10.2454
10.1733
9.78047
9.83275
10.1005
12.2523
15.3939
12.5762
12.6491
11.7177
23.1233
12.3653
11.09
9.86326
10.0975
12.1731
15.2307
12.9539
10.7761
11.847
19.9932
12.9817
10.1806
10.1661
10.1476
11.8776
15.7258
12.5324
11.0091
10.6587
15.7465
12.1996
10.7185
9.90708
9.89021
12.9907
13.322
12.7661
10.6363
10.982
16.1807
12.4372
10.0453
9.93771
9.84103
9.84644
11.9893
11.6371
12.0516
14.0565
11.2689
15.7438
12.2806
10.3187
9.83466
9.8226
9.83415
9.85562
35.1881
36.3045
44.2957
11.5608
13.7078
11.3065
10.1249
9.87733
9.8205
9.8008
9.81557
9.83501
34.2549
85.4712
30.3558
9.76057
9.76132
9.76364
9.78303
9.82637
9.78424
9.84824
9.91635
10.0255
9.76271
9.76988
9.80519
9.88868
9.87825
9.92025
10.0928
9.99251
10.1366
9.77511
9.79282
9.84226
9.86001
10.113
9.81659
9.90991
9.92773
10.3636
9.78724
9.82971
9.83893
10.0054
9.80472
9.80639
9.90863
10.0652
10.1706
9.83927
9.86353
10.0268
9.80011
9.80539
9.81462
10.0943
9.95345
9.95167
10.0202
10.1357
9.9605
9.8751
9.84239
9.9916
9.92679
9.81451
9.82049
12.9791
16.2001
11.9296
10.2912
10.1076
9.87337
9.85676
9.81873
9.81405
11.0979
11.0605
17.0258
11.375
10.1751
9.85354
9.81495
9.75954
9.76097
9.7617
9.76468
9.76804
9.78326
9.78809
9.81404
9.82041
9.7605
9.76
9.76133
9.76611
9.78236
9.77326
9.80293
9.84957
9.90572
9.76017
9.7639
9.77834
9.80363
9.76716
9.77313
9.80489
9.87887
9.91795
9.76226
9.76836
9.78442
9.76535
9.77034
9.77234
9.79851
9.84339
9.90449
9.76826
9.78892
9.76259
9.76349
9.76939
9.78492
9.80493
9.80021
9.80087
9.76152
9.7647
9.80173
9.77042
9.76943
9.78155
9.82026
9.81714
9.8163
9.87783
9.94806
9.91138
9.84886
9.79609
9.78847
9.78017
9.78517
9.79467
9.79499
9.79684
9.99098
9.93728
9.76169
9.7653
9.76688
9.77512
9.7814
9.79757
9.80893
9.76091
9.76181
9.76627
9.76976
9.77722
9.79355
9.81366
9.76211
9.76613
9.76564
9.77248
9.77909
9.80012
9.81077
9.76392
9.76289
9.76446
9.77002
9.77583
9.79035
9.80686
9.76078
9.76372
9.76457
9.77518
9.77884
9.78653
9.79853
9.77353
9.77235
9.76457
9.76842
9.77694
9.78595
9.79651
11.7849
15.5936
14.0926
18.4823
31.853
38.7408
35.2049
33.4834
24.2039
92.3606
32.8373
15.5099
29.3663
79.4805
41.6807
320.869
42.1608
29.6496
36.1781
72.9539
86.5447
174.785
53.342
22.2725
22.7478
26.0939
19.3206
23.76
535.32
35.2869
26.0788
39.6795
244.488
61.342
38.7616
34.8717
36.1962
81.2839
140.411
253.872
206.067
103.781
73.5753
101.602
111.911
254.756
408.59
273.595
47.11
31.848
95.6674
29.9967
86.3537
54.0337
93.8707
75.5194
102.771
67.3814
369.788
126.354
42.468
32.6444
28.2156
37.2854
67.8557
73.6574
35.6369
18.9553
102.288
31.9139
32.6142
82.2647
59.9883
107.639
75.5194
86.4776
23.3279
48.381
67.6913
94.4948
72.6361
94.0164
57.963
191.004
92.8797
82.4914
32.3452
137.301
162.36
50.5237
77.0171
83.5262
125.69
85.9069
122.692
116.244
82.7807
41.4337
121.426
300.399
91.5451
49.056
26.7597
168.038
244.047
33.414
45.6045
259.606
28.0992
33.5421
180.847
25.1979
15.8778
212.238
372.74
215.311
29.1524
21.1421
17.3693
24.7394
376.259
307.483
239.616
38.1825
47.1856
77.6512
80.3599
255.897
128.767
15.3656
40.9864
62.0958
96.574
131.986
37.054
64.5763
110.699
30.2337
37.8193
146.479
132.395
34.4537
78.1644
52.465
31.8206
33.0059
133.957
82.2303
164.632
20.1821
93.5114
66.618
76.6337
127.426
110.24
126.717
99.197
118.964
105.012
136.16
321.802
103.049
85.5054
66.2565
279.965
65.1983
27.2439
14.1103
57.3703
20.7899
16.9025
94.5474
83.8325
131.281
18.3884
32.2009
75.7471
82.5405
82.2101
23.898
27.89
72.3889
91.5047
73.329
71.3376
60.7575
70.4491
86.0506
48.5651
76.2132
24.2039
33.2433
94.6028
35.3939
12.321
10.2409
12.4729
22.1113
37.8864
24.3062
38.243
12.0852
10.2354
12.2404
19.5231
34.6558
22.8916
40.5446
12.3653
10.8744
12.6606
19.1303
45.4764
25.7845
28.6595
18.9117
31.2955
17.7791
29.9839
30.7808
78.0625
33.7224
52.5251
36.0008
38.5945
39.3485
30.8028
40.7711
124.875
40.2087
71.4653
99.8211
33.9546
39.3005
84.2837
238.546
44.7895
29.0284
36.1171
176.054
105.82
169.703
39.943
114.528
32.5057
92.9659
27.6454
60.3561
63.8028
329.625
168.038
76.1012
74.1996
85.4404
71.1895
123.715
207.343
39.2364
89.6502
35.3677
260.674
188.04
231.389
53.9488
108.535
72.3835
30.8251
351.742
252.362
93.5558
26.9584
155.388
73.8862
70.8279
150.982
79.8824
148.227
174.925
36.7839
33.2664
25.9527
101.135
29.0328
32.1989
50.171
65.0151
117.693
60.8959
549.447
73.9667
123.984
73.604
113.064
46.5086
47.6939
60.0612
135.412
38.5228
783.435
204.452
73.4035
63.4486
61.6076
26.9598
35.5584
38.373
146.078
26.0901
20.4428
30.9376
136.157
113.136
36.5932
42.0712
167.839
35.4862
40.4136
32.4613
22.512
31.5809
71.8453
313.871
34.0164
39.4534
27.7424
26.2108
96.3161
175.711
61.9675
15.1338
30.9967
19.1373
39.4453
84.8783
81.1701
265.978
36.5799
40.7203
19.2215
111.399
261.091
118.247
477.146
97.1864
48.6475
154.918
197.034
200.044
53.2099
20.14
27.8091
30.8501
34.9483
73.7127
63.3891
31.1498
23.403
28.9685
106.382
137.93
100.312
113.115
81.1659
425.51
145.998
108.73
211.161
96.5488
29.7491
74.2992
89.9705
29.9866
35.7441
60.2867
70.0124
29.3238
33.1109
87.7514
46.2512
131.614
174.722
326.29
98.5992
57.3662
53.0108
118.075
135.981
43.7953
66.0803
55.0335
26.866
33.638
95.5794
299.499
124.42
288.911
160.584
209.877
106.562
45.6356
147.732
267.918
39.4433
56.3042
84.9186
68.3634
31.1049
30.9508
21.4278
38.0181
10.3567
12.565
10.2496
12.51
29.2451
19.7154
37.095
10.3197
12.4268
10.2793
12.3046
72.1637
49.0538
59.8534
81.9334
36.9011
27.6455
29.9244
40.4725
42.3245
69.5444
81.2014
33.3629
45.9306
30.4882
30.2996
29.1521
24.2184
34.0408
11.1257
11.7078
17.7198
14.7433
130.325
115.051
80.735
67.1948
145.245
140.898
87.3278
77.4531
66.2173
145.741
48.8265
49.4647
38.8158
35.2843
82.3343
30.6025
145.873
97.0839
27.5387
28.1321
20.594
40.9036
19.3062
39.6889
20.8896
33.0743
11.2907
16.1325
36.7278
50.2791
37.014
18.7508
34.2987
11.2675
14.2248
44.722
23.7838
27.9964
116.368
67.23
67.3818
125.647
69.9256
54.6083
114.229
73.5102
63.4963
122.838
83.9718
55.4814
141.665
56.1276
75.2278
98.8197
94.3087
54.117
138.168
64.2273
61.1078
64.005
60.6738
41.7805
61.0383
53.2154
60.2816
34.4171
69.5557
45.9959
82.5477
40.717
63.0118
59.6518
58.6149
44.9759
73.4025
582.819
83.152
64.0692
77.5125
57.9206
110.473
359.064
70.1133
58.9707
101.116
68.7938
62.1635
272.903
64.1412
68.8953
99.0997
57.8342
99.3077
76.1594
421.592
62.1053
97.8462
200.105
69.343
80.5252
129.127
305.47
68.2351
71.4415
208.997
52.3277
96.2404
352.168
303.3
93.8704
49.8432
238.868
182.213
73.8451
70.7107
211.378
65.8525
245.12
269.89
179.476
98.9605
63.9672
232.64
62.2874
185.592
278.207
112.854
133.654
121.748
344.731
143.137
141.781
310.628
129.619
230.276
261.987
400.63
407.233
233.915
339.115
229.778
414.078
59.3659
688.658
137.012
184.268
128.124
170.986
53.2475
181.323
63.8123
91.431
165.199
62.8994
133.526
131.046
187.337
73.8699
70.8369
211.788
70.7759
145.131
111.32
164.585
96.2704
60.4121
127.369
62.1805
132.966
130.607
244.73
74.3884
99.1237
130.986
118.11
151.959
190.07
249.864
107.8
283.167
125.52
174.296
194.374
396.763
147.249
148.652
181.361
193.38
144.879
282.956
173.637
180.727
71.5457
70.461
66.9687
640.483
70.7321
519.325
72.3995
107.305
423.681
326.836
108.062
406.819
62.3313
94.3681
151.37
61.1969
178.275
159.56
412.073
75.4914
69.4806
67.9165
308.492
194.663
94.5235
56.5453
155.572
58.3576
271.705
60.1217
202.33
398.946
168.626
286.976
253.608
194.298
541.169
396.187
172.572
2407.85
161.62
737.186
202.431
809.883
152.703
135.764
128.337
91.15
205.352
89.9485
125.738
150.468
133.798
61.401
703.872
69.5904
140.654
58.7355
127.07
65.0509
122.502
59.9679
93.5131
94.9201
96.8639
112.079
55.3305
67.6159
115.993
56.9006
316.008
65.7043
78.2596
131.882
81.6371
54.449
103.352
119.22
136.015
116.467
68.3059
68.0933
44.3723
120.017
54.1489
49.4069
40.7438
46.8861
39.9247
103.774
138.518
44.1023
39.5463
124.959
313.583
43.5872
125.725
335.208
213.341
228.722
194.713
151.787
77.3791
82.3428
204.974
194.944
282.95
56.1511
68.0955
202.739
119.92
53.6589
310.981
88.4758
82.8575
113.171
56.77
93.3892
63.318
299.488
190.523
133.803
127.015
125.694
46.5737
105.257
781.779
50.0256
333.614
65.3479
57.5526
38.4565
124.596
370.061
62.907
350.567
69.7704
48.0297
38.5201
572.323
370.466
77.3538
472.116
65.5265
35.3083
257.852
125.52
318.034
62.0426
38.0456
139.805
288.985
602.524
129.834
158.038
193.848
287.852
351.692
154.323
173.497
198.526
211.366
80.7788
78.0958
78.0271
164.007
157.975
75.4174
130.002
100.601
229.402
140.081
419.505
115.327
159.926
133.136
136.934
379.617
148.062
420.484
117.32
170.973
120.337
224.611
347.135
92.4357
185.015
155.575
174.662
64.3813
86.84
27.5372
31.7949
48.7852
90.8583
19.1684
71.4741
144.546
56.6881
68.2764
67.6703
119.347
87.2517
130.806
229.429
64.2412
79.2167
61.9683
159.423
84.7192
80.7251
145.988
61.5612
94.8992
79.6375
237.208
65.7467
97.9233
160.389
64.2547
249.984
85.1618
116.198
87.4152
395.983
66.6946
62.0025
257.08
99.7084
124.467
98.1876
418.275
63.1642
69.2024
81.6493
67.6035
240.177
82.6575
85.9798
205.644
70.6942
250.642
87.6569
111.615
85.5614
205.576
74.0555
69.6109
118.784
107.267
76.2704
92.6417
195.968
67.9818
132.475
210.672
126.119
85.9651
193.958
134.898
398.367
112.868
41.6696
226.184
142.502
144.398
228.815
236.937
84.4053
136.475
48.8742
89.8444
62.5123
123.13
53.9702
222.75
380.315
100.43
309.598
604.885
84.6454
420.324
92.2559
116.616
113.119
154.914
396.168
127.35
208.856
122.735
111.289
203.767
160.015
121.433
34.7905
99.5454
291.933
208.342
61.6186
104.87
294.342
123.243
79.6103
64.8684
141.905
374.026
162.597
251.468
69.9117
57.5985
112.457
127.673
192.318
77.9519
120.915
125.264
70.268
86.5739
21.6669
72.0943
141.039
579.491
129.841
214.756
98.4707
72.9108
136.709
118.674
83.9015
57.6638
140.501
112.629
130.731
115.072
110.697
80.5049
153.51
68.711
71.3744
65.2372
338.327
79.5666
73.3552
347.957
92.4245
64.3387
82.4966
344.079
59.6249
136.314
62.6234
91.9106
68.0807
79.2293
114.144
114.973
113.298
142.806
138.571
72.7498
347.584
66.9688
69.6306
74.7445
171.471
84.3089
54.9958
136.09
91.0404
58.3289
81.7825
150.654
65.0302
186.125
206.822
60.476
48.7564
64.7419
62.0457
46.7168
51.5579
149.249
58.119
62.2333
255.028
130.02
45.5313
197.301
415.733
73.6128
60.7296
124.814
84.3813
60.6399
13.7863
12.8714
47.2059
28.5328
15.6478
10.3348
13.9733
46.8974
25.3038
27.6169
35.9745
26.0533
27.6656
12.9662
10.683
12.5723
28.1014
33.8509
34.4093
27.7111
12.5134
10.4574
12.5387
40.6898
40.8761
26.5662
33.3999
14.2063
10.3761
13.2312
30.1243
39.3262
28.9934
31.1475
12.569
10.7258
12.445
39.3932
29.0079
27.6648
34.5698
12.5255
10.2901
12.9737
22.8581
40.102
26.241
38.4331
13.0349
44.0928
14.5431
32.3771
16.5987
37.5417
45.1007
19.9347
52.1115
21.3492
26.3586
14.7372
37.0788
39.6659
37.9511
34.5729
29.6934
56.3334
46.1472
18.6838
15.1651
62.7648
18.0527
59.8113
60.4401
43.1057
29.87
43.5717
36.4962
148.906
147.783
139.093
53.7283
38.0087
57.1244
18.314
49.5356
36.6864
80.1591
48.5903
37.7612
32.2782
17.9496
41.6023
30.7139
34.5797
41.1215
40.9303
27.2216
116.686
29.3032
33.1859
43.4676
48.5259
38.2574
39.5851
19.3129
45.2316
32.3363
62.3811
199.699
71.8361
69.2882
85.5412
70.2322
124.123
158.964
72.5883
73.4742
182.948
273.978
136.9
140.193
71.8685
29.1976
38.1794
41.3476
210.175
29.8203
20.5725
33.6795
419.974
73.1092
76.0409
64.7616
69.6154
149.102
221.224
177.334
287.321
156.801
202.731
126.917
29.6336
27.0109
15.923
31.766
53.5274
40.1561
80.654
16.3472
19.4753
19.0888
54.7948
40.8273
79.8467
90.5924
63.3745
247.563
78.9588
84.6255
50.4381
42.6833
71.2996
322.779
154.625
60.7542
370.615
328.298
56.3894
51.5405
78.7671
58.769
201.637
41.1546
35.9127
44.0284
32.6659
38.5512
34.535
26.4433
224.933
133.837
157.544
167.178
90.3561
125.733
31.8484
25.9994
38.9415
33.9937
36.7081
34.6036
25.3458
390.845
137.123
139.853
169.921
197.052
131.76
34.447
49.0808
24.8736
34.2837
38.0652
32.8438
22.6522
105.928
120.838
92.8167
100.974
665.858
83.8976
350
88.097
111.334
216.936
240.974
101.171
147.158
28.9209
23.5818
36.8347
28.4161
35.0225
36.333
24.3156
29.6599
41.2127
61.2672
40.7155
81.6706
83.6551
52.8583
24.2045
28.4288
24.4153
10.3713
12.8093
10.2751
12.7315
45.328
30.7137
38.0405
10.3665
13.4375
10.534
13.9252
41.648
107.393
27.8849
17.519
15.6922
38.4283
40.8479
121.11
120.82
268.5
66.6345
54.4179
224.265
130.191
83.1083
494.714
57.2196
116.964
82.3628
82.9804
46.8401
35.0876
89.6705
29.8289
30.0397
19.4427
31.7141
18.8863
73.2389
28.4634
13.5141
60.3397
16.3974
97.814
56.8852
64.4261
73.8838
36.8746
70.6671
69.6109
19.6084
94.2959
50.3975
105.962
163.394
106.827
185.527
47.8255
19.2824
25.1712
69.5353
34.0173
87.0196
69.0905
81.4832
20.5124
80.0273
58.3076
32.5406
80.6905
86.8527
102.455
162.544
109.49
154.361
114.666
158.03
119.244
146.796
111.955
152.273
83.3784
62.714
66.2912
116.647
67.8531
73.8788
36.5544
21.799
54.3656
51.183
22.0816
60.9367
52.0466
204.13
184.689
196.968
200.005
56.5654
57.8667
65.6683
47.3691
44.7132
15.7743
24.5782
74.1766
19.1049
61.3673
83.1774
195.981
184.974
176.844
201.18
83.9096
140.901
106.854
116.631
77.0958
74.622
63.8971
112.675
115.396
68.3451
177.286
205.397
109.379
92.2953
614.405
109.477
118.729
138.004
146.37
96.6001
104.425
72.8743
41.2963
69.4973
80.855
93.5152
74.6103
146.453
113.35
173.717
131.572
263.948
95.1019
160.199
183.929
100.113
105.994
130.384
253.607
110.093
92.644
246.772
164.19
65.2737
103.04
126.687
65.3011
136.526
195.563
325.439
104.096
130.147
136.017
106.855
150.771
430.155
177.777
96.9751
149.897
337.76
96.4689
122.934
378.576
206.401
418.685
279.869
77.2797
98.1657
63.2794
229.213
52.4341
129.893
148.992
79.7762
77.9791
24.5523
110.885
27.3364
132.878
72.5655
77.1203
64.9886
74.9789
148.388
60.8922
138.9
66.2663
227.291
184.936
297.091
479.685
125.986
189.2
192.058
159.289
176.712
353.777
20.0537
18.3508
69.4776
56.5831
34.6209
17.0903
66.7837
91.3174
56.0644
30.8292
57.3075
65.2446
19.5062
76.3906
33.334
56.8433
21.7448
57.0564
28.215
14.8122
70.9222
25.545
54.6282
25.5107
61.5307
16.3806
63.855
33.0117
54.1077
74.9647
91.9897
77.9439
427.887
72.6714
86.5731
57.5266
63.9936
246.456
736.266
77.1092
57.0014
59.2286
298.482
60.6275
237.222
76.8435
124.386
374.364
460.99
258.24
284.969
111.875
61.8157
59.7441
103.244
72.347
167.678
89.9913
135.359
70.3559
85.0133
127.835
70.0426
237.168
60.1574
104.953
104.868
317.779
52.3492
76.2372
73.3847
109.501
317.416
68.361
84.0047
368.528
166.846
315.566
92.8319
59.3371
102.152
274.522
202.816
44.0824
82.722
232.984
144.169
158.297
117.312
106.795
140.231
169.163
121.397
187.804
178.977
177.945
56.8248
89.9033
150.46
56.4529
87.1919
178.308
54.4782
66.3815
273.341
66.1499
76.0185
116.994
123.938
378.777
142.793
96.9095
166.244
215.182
135.43
177.474
122.918
163.35
130.381
164.56
36.9499
64.3772
54.5719
66.5408
58.5091
169.089
292.444
231.211
123.844
108.901
328.357
72.0689
236.758
38.9271
56.3452
49.87
46.0397
73.5976
20.1861
84.4668
47.1065
21.3055
153.184
125.787
379.411
163.148
128.234
200.43
246.161
160.53
131.747
412.25
165.027
129.574
206.921
305.693
50.1906
52.1056
13.9677
21.4731
73.6774
55.075
13.1784
46.3011
66.443
15.6714
19.3555
78.8884
47.9744
18.6828
46.8216
77.1461
22.7508
13.1863
61.4522
48.8635
13.305
253.041
128.102
445.862
164.47
120.742
227.568
406.544
213.461
306.138
321.933
127.767
128.457
179.217
169.72
73.8292
96.8609
73.3713
54.1498
91.6021
77.5859
179.341
62.6569
63.0615
87.204
44.9355
116.348
65.6351
220.2
131.851
80.1324
67.7737
126.982
175.5
65.1908
205.319
137.2
126.507
1209.27
244.97
550.857
76.1287
86.9843
19.6842
17.8163
71.1323
56.7389
26.6732
53.3136
82.6594
92.5432
71.1932
93.0965
131.16
64.6808
76.6598
36.1488
62.9629
109.279
34.1791
93.0829
184.514
157.26
130.459
98.1097
139.51
90.0094
75.9164
31.7779
68.4549
61.3096
137.148
93.3774
153.27
118.192
93.0522
56.0224
144.329
165.309
57.4732
201.379
276.328
95.7295
77.9303
60.8537
213.371
96.021
294.619
365.923
168.355
212.851
88.964
242.051
172.401
81.8315
118.236
100.164
129.951
121.099
105.929
170.71
106.523
612.152
147.813
125.291
99.2092
111.027
116.969
838.596
114.597
93.7727
102.681
183.502
69.4948
161.51
139.424
127.424
223.047
209.218
58.5816
61.8206
68.1087
45.6394
105.094
118.303
298.635
128.154
147.378
134.664
318.729
266.527
148.942
76.5621
111.805
68.0553
184.743
78.4492
158.464
14.5908
40.047
17.5787
29.0834
17.3142
115.311
111.298
269.175
77.4205
47.4227
128.99
285.189
89.1619
81.344
23.8429
18.6475
77.8497
74.991
29.1819
82.947
36.8516
27.1449
38.6902
31.9063
96.8266
19.8883
81.8488
32.7771
23.2224
21.114
91.2201
90.0893
28.8375
99.8384
73.2029
65.1151
35.8606
71.0002
114.579
71.3989
88.6342
107.489
119.553
73.9802
66.289
67.4436
70.9703
79.7258
93.0801
111.416
94.335
137.417
70.1483
62.5318
76.3877
237.581
77.8686
75.2417
321.434
64.6803
184.493
90.6092
351.43
75.7703
68.2182
67.2452
85.29
145.361
101.214
74.4855
141.999
58.8178
36.6008
65.4818
64.1516
99.8008
73.0826
167.435
194.369
65.5488
78.4698
32.1
74.8558
379.261
217.578
75.2189
57.6351
59.7578
65.3261
71.1969
96.7064
72.9217
76.808
27.7028
34.9213
68.3769
241.578
813.408
97.631
269.91
114.539
80.0213
56.4737
113.98
131.811
265.404
144.689
144.042
113.034
258.506
115.185
365.087
151.666
162.422
119.161
109.779
235.718
81.4074
213.325
175.841
60.4463
85.9151
84.149
56.7835
105.339
302.003
304.29
68.0048
226.396
73.3021
157.386
95.727
298.639
54.8547
61.902
97.2642
90.721
165.099
225.937
313.384
230.468
71.9932
76.3003
58.9717
131.388
64.5669
201.478
279.851
125.404
94.4197
71.856
92.2377
76.8825
86.1944
138.115
82.1693
52.0619
82.7497
78.935
251.834
268.142
403.11
177.153
129.262
125.779
222.176
400.105
111.59
82.763
86.9784
109.412
104.197
259.217
174.229
115.194
67.3606
69.5519
114.947
107.083
145.629
142.069
160.433
122.101
119.289
213.248
105.356
202.93
163.853
119.303
118.279
136.032
214.687
107.156
173.206
134.01
159.736
125.165
118.81
207.475
107.255
182.873
82.1862
115.764
179.891
105.821
49.2224
82.5874
53.1955
62.1015
121.526
102.671
102.278
100.022
115.529
116.856
104.861
93.1398
51.9713
59.0878
116.976
81.6945
43.0565
58.0719
100.868
103.92
166.052
96.5823
113.56
117.482
93.7587
127.487
97.6551
133.966
123.722
124.896
116.624
153.854
136.799
138.104
118.326
113.217
198.478
137.55
111.019
104.174
137.474
376.115
1397.15
156.5
102.039
100.41
112.907
98.231
109.326
98.5371
429.066
152.424
732.098
98.16
155.056
106.741
97.318
100.624
113.041
99.0699
64.6098
60.1898
64.2611
61.3546
39.6838
38.9356
160.929
152.572
318.882
205.543
505.573
178.923
283.388
127.448
155.701
201.21
516.252
392.193
87.1149
50.4127
78.1709
54.9703
86.8904
63.9741
81.5602
79.5782
122.736
57.2552
78.1027
45.1543
58.3851
61.9771
764.116
89.7275
46.8698
75.1462
89.9472
136.937
83.4534
291.04
103.559
94.0238
65.8738
63.5424
51.7036
35.5718
350.744
99.5042
129.294
133.082
116.758
78.1247
53.6511
137.006
123.955
177.998
164.528
590.876
140.852
124.431
143.784
109.727
147.645
548.823
358.267
134.388
992.922
177.864
621.481
370.221
89.6471
36.3154
47.3955
108.946
210.247
89.4457
316.56
102.866
106.061
60.8506
82.2581
172.156
88.0937
115.108
158.131
142.53
68.2732
145.332
71.0966
92.4623
147.737
135.453
103.378
97.322
159.899
263.252
358.879
106.184
124.959
166.134
77.1839
99.6691
117.049
75.075
216.864
76.6847
165.808
83.5517
69.2695
83.0095
85.5501
65.8499
86.8262
19.5068
142.922
75.0527
80.2832
31.7095
66.1091
600.197
71.8884
72.0074
72.5059
41.126
86.3372
382.151
75.0209
117.408
40.8599
45.792
85.1755
105.904
69.1556
84.355
79.2526
61.3059
50.6263
42.4359
124.513
213.767
334.142
121.691
122.672
316.465
75.6282
89.9043
96.2959
174.351
101.966
86.2222
68.296
82.2804
125.056
215.689
104.623
84.2435
102.129
80.0974
86.4461
119.698
267.981
120.9
97.9287
313.091
123.943
98.1041
192.054
103.662
330.559
85.7911
87.512
256.847
71.0745
101.986
247.94
73.2498
118.413
191.477
113.265
120.533
139.578
156.235
150.835
138.674
109.25
205.212
159.078
250.193
184.672
104.11
104.928
95.8385
246.721
103.484
136.26
129.607
161.903
215.581
201.311
132.85
236.7
170.776
82.3402
116.582
190.37
250.858
107.834
69.3133
61.541
33.8135
190.809
100.966
75.6612
102.469
39.8575
51.1784
31.0078
102.444
81.1749
67.2275
80.5881
86.8949
65.5765
81.6784
78.1551
82.5848
33.1325
22.6865
112.15
52.3274
100.685
73.672
72.064
24.0716
48.0343
91.2757
52.487
82.4047
79.098
85.6435
32.6095
24.5738
113.27
268.56
74.9777
120.232
115.467
218.471
50.7974
109.889
114.987
266.144
63.0834
48.3481
218.201
114.436
105.614
310.751
291.94
111.308
96.4688
82.6381
121.314
156.186
65.1097
125.426
126.143
263.537
68.6906
117.594
102.059
135.297
50.4488
42.859
186.4
129.375
93.9436
99.4624
90.4126
518.479
316.289
93.4567
124.615
126.911
282.152
95.9109
133.212
269.928
84.0786
136.986
150.654
100.397
104.581
81.4761
63.1198
261.592
81.7655
97.8919
63.8854
59.1422
46.1315
113.916
167.529
111.378
156.248
215.863
120.017
176.343
479.22
130.875
202.25
128.85
130.15
101.37
210.946
153.197
117.383
241.415
131.593
115.899
58.0593
127.358
86.9017
519.925
124.517
115.199
94.473
61.4232
35.4691
34.9676
136.038
85.5168
110.62
289.02
88.0375
107.686
104.097
126.523
548.679
106.796
193.87
118.51
190.61
120.717
50.7179
43.4561
88.3682
41.5864
129.002
91.6991
110.251
90.2876
107.902
109.412
121.048
104.34
92.604
63.4877
47.4632
134.98
51.9023
101.2
117.018
284.135
61.9132
115.5
123.795
56.3298
280.835
100.768
138.7
505.134
117.681
144.394
117.907
132.208
299.003
112.533
109.007
203.833
90.0687
41.5707
43.5668
79.0281
88.9697
89.2769
36.4843
64.0941
87.7731
36.7453
90.0949
206.565
200.449
200.572
179.203
191.577
196.925
90.6219
44.4064
91.0629
44.6901
88.1966
34.3546
62.3839
72.4479
35.901
75.7669
86.7932
202.733
194.579
78.214
40.1501
40.9965
74.2572
84.2645
161.209
183.824
80.5234
58.0872
48.8417
81.1458
33.445
57.5164
85.5781
34.0008
70.0731
96.1224
70.3845
41.805
40.8551
68.0565
83.4901
188.68
63.621
44.2115
33.4624
114.637
33.9165
88.7415
88.4578
74.3363
85.7897
43.1338
59.9162
42.0207
87.4166
84.8201
193.44
142.54
169.913
142.696
192.276
176.005
198.09
145.267
68.8917
45.6879
37.8817
111.325
34.7942
88.2652
89.0339
67.7167
40.8587
59.8416
70.8532
40.9169
80.9383
81.6369
188.642
112.102
139.62
131.359
90.2816
125.735
95.076
124.753
94.3362
134.528
118.211
118.52
95.9451
96.8248
122.906
114.061
79.7412
35.4641
36.5888
118.566
28.5373
108.499
104.752
79.8952
154.028
72.0519
124.145
74.2302
120.151
102.548
116.822
87.7732
43.7662
56.892
83.8449
94.0554
34.8739
98.2815
73.9787
91.4726
118.499
86.0965
107.204
194.252
137.356
108.043
136.359
127.278
280.868
111.118
120.61
116.076
121.945
82.3343
113.204
104.991
111.039
115.491
140.315
142.657
104.407
95.6457
59.9201
164.2
120.211
134.879
102.336
98.7636
122.927
109.604
258.209
158.96
249.098
159.964
102.878
203.925
111.058
129.692
141.465
252.546
102.267
97.91
180.805
97.7461
255.211
124.181
256.2
91.5727
127.42
256.266
107.2
146.891
133.777
251.901
98.8769
131.359
251.386
102.062
305.339
159.105
252.087
161.708
102.344
302.012
99.3267
271.86
117.594
260.957
104.381
120.183
300.724
98.6259
125.774
252.17
252.273
98.0279
125.76
298.915
93.6867
74.1409
164.331
175.244
97.9565
77.033
154.392
107.709
155.595
281.678
317.418
157.942
107.997
145.909
104.828
142.474
141.869
277.465
154.334
105.2
139.95
104.355
275.087
135.739
309.789
114.989
133.76
161.08
81.0485
80.0966
148.661
182.297
117.408
65.6602
169.064
122.091
146.787
178.692
267.887
148.743
114.746
153.556
104.974
162.94
145.438
169.458
147.817
115.404
149.745
119.663
169.717
136.668
276.835
112.689
131.407
163.95
380.378
425.833
108.598
134.619
163.609
113.886
167.117
251.72
133.749
81.802
109.566
1018.57
140.317
176.43
296.474
130.261
114.665
122.068
325.76
1843.02
158.322
225.864
327.628
360.036
972.408
266.877
209.727
139.862
83.6601
88.6415
388.114
297.851
351.725
143.408
146.712
520.779
365.291
301.883
131.128
121.576
123.656
242.909
504.578
598.909
205.582
274.837
205.857
252.903
677.918
314.895
478.951
323.534
2292.66
500.111
232.888
230.361
369.794
273.548
2018.23
424.94
208.655
306.211
757.017
221.633
296.746
291.659
402.796
224.949
378.643
373.074
145.274
166.198
144.62
92.8569
166.544
102.454
172.351
182.32
145.87
159.304
109.936
189.981
102.014
303.21
145.165
136.872
113.162
191.488
149.708
306.371
180.755
138.208
133.14
51.3539
98.9259
163.079
111.327
99.8134
58.9085
153.216
34.5597
162.699
130.639
169.777
52.608
94.9738
164.25
38.4036
103.504
82.1653
156.309
76.6082
47.9327
155.221
109.312
140.771
196.352
112.115
128.688
102.636
171.107
108.004
150.431
243.461
151.695
107.961
145.704
176.967
126.547
171.135
117.301
227.842
123.042
150.688
187.511
92.7831
106.102
154.749
127.773
94.1539
152.473
152.35
132.698
110.356
106.81