/*--------------------------------*- C++ -*----------------------------------*\
  =========                 |
  \\      /  F ield         | OpenFOAM: The Open Source CFD Toolbox
   \\    /   O peration     | Website:  https://openfoam.org
    \\  /    A nd           | Version:  10
     \\/     M anipulation  |
\*---------------------------------------------------------------------------*/
FoamFile
{
    format      ascii;
    class       volScalarField;
    location    "0.05";
    object      omega;
}
// * * * * * * * * * * * * * * * * * * * * * * * * * * * * * * * * * * * * * //

dimensions      [0 0 -1 0 0 0 0];

internalField   nonuniform List<scalar> 
115093
(
9.75466
9.7559
9.75666
9.75853
9.75773
9.76562
9.77303
9.79185
9.75739
9.75588
9.75721
9.75682
9.75883
9.76556
9.77565
9.79561
9.75596
9.75599
9.75844
9.75775
9.75824
9.76485
9.77519
9.78538
9.7569
9.77457
9.76088
9.76191
9.75911
9.76747
9.77392
9.78547
9.78988
9.77299
9.75958
9.76534
9.77348
9.78107
9.75876
9.76398
9.7769
9.7619
9.76297
9.77307
9.83322
9.80744
9.76314
9.78305
9.76066
9.75892
9.76189
9.78074
9.79886
9.77843
9.75796
9.79298
9.76337
9.75697
9.76252
9.78221
9.79845
9.78861
9.94992
9.92351
9.86482
9.78037
9.76162
9.78098
9.83994
9.79186
9.79527
9.99562
9.93848
9.82773
9.78151
9.77758
9.77466
9.7875
9.78651
9.89466
9.76886
9.78805
9.84154
9.82715
10.0729
9.88736
9.89813
9.86689
9.94033
9.81159
9.77441
9.81459
9.82978
10.0129
9.8101
10.0063
9.91793
9.91752
9.92993
9.81555
9.84526
9.88304
10.0275
9.78383
9.7925
9.81618
10.0498
10.0816
9.95671
9.8419
10.0869
10.037
9.87211
9.79557
9.78623
9.81609
10.0523
9.98291
9.8542
9.82717
15.764
12.0309
10.3167
9.90612
9.84886
10.0072
10.0071
9.89818
9.8041
9.82451
10.4276
17.0247
11.217
10.1311
10.0863
9.88751
9.91182
9.79673
9.78948
9.81257
10.8615
13.0404
11.1201
10.0179
9.75694
9.76223
9.78198
9.85042
9.89148
9.978
10.1848
10.0284
10.2047
9.96892
9.77084
9.79114
9.87833
9.91189
10.1431
10.0298
9.93212
9.92562
10.2129
10.1092
9.77758
9.84171
10.138
12.2213
17.4325
12.0465
10.3627
10.0395
10.2132
10.1564
9.86606
10.1085
12.2904
16.6951
11.2332
18.062
11.9184
10.1944
10.208
10.065
10.0245
11.8194
16.9351
11.1708
10.3704
10.9574
16.8133
12.161
10.7872
10.0194
13.8779
15.1867
11.4792
10.2468
10.2743
10.3716
19.5229
11.7493
10.4816
9.98742
11.5419
13.1794
12.3793
10.5011
10.4227
21.0139
12.2804
10.2443
9.85381
9.8047
10.9253
15.4172
13.9865
11.0618
20.7581
12.3577
10.5003
9.97939
9.83506
9.83933
10.2811
12.0721
13.4509
12.9807
12.0245
10.3553
9.97659
10.2276
10.034
10.2007
9.75879
9.76887
9.85071
9.9143
10.2284
12.2545
15.8023
18.719
12.7184
10.3951
9.76915
9.85964
9.91549
10.2767
11.7197
17.5357
13.047
11.826
17.3331
11.7961
9.91154
10.2694
12.3566
16.92
11.6242
13.4023
13.4407
11.9004
12.7692
11.3655
10.2232
12.0266
16.9709
13.7273
14.0147
13.7684
13.8083
11.1131
17.2981
11.8042
12.3617
16.8986
13.1857
11.0646
10.314
10.5316
16.6175
23.5207
12.5397
10.1459
11.3943
12.338
11.1384
10.3036
10.2389
10.4527
14.351
12.1433
11.2008
10.2185
10.9865
12.5707
10.7044
10.243
10.7293
14.7064
19.2324
11.1367
10.3867
9.93858
40.2689
25.9056
35.4787
12.004
11.6533
21.2358
11.4177
10.0067
9.81554
9.80143
15.4248
27.5463
28.6467
13.487
21.719
11.7139
9.99668
9.91339
9.92239
10.3235
9.7765
9.8429
9.88879
10.1904
11.66
17.6084
13.5447
12.1658
17.6396
12.0423
9.92343
10.0756
10.2317
10.9152
16.6507
14.0966
20.5328
46.8765
14.4087
26.0353
12.4179
10.3038
11.9551
17.8591
12.0379
13.9928
20.6607
35.0666
37.3072
16.1554
22.8067
11.8057
11.3894
16.9236
14.6311
18.2033
37.5658
30.8343
29.4605
51.5693
13.7069
26.7752
12.38
17.823
15.1789
18.9723
46.5295
76.6681
71.2322
29.2672
17.552
19.0762
11.7663
10.9929
14.0788
18.5392
40.8143
58.3199
72.8692
95.3217
18.5668
26.8233
12.3826
10.0918
9.99209
33.7042
37.5127
72.1387
74.1308
33.3074
48.6573
22.7802
11.4412
10.4082
9.91637
9.89904
71.102
86.1032
62.7138
87.7305
15.3884
20.7928
11.4779
9.91076
9.85116
9.82586
9.83839
52.0021
43.7565
23.8484
11.3081
9.86452
9.95219
9.92941
10.3197
9.77836
9.82913
9.80504
10.0914
11.4942
15.1105
15.1107
12.1128
18.0723
11.9075
9.91552
10.0062
10.1157
10.9371
14.7283
15.7122
32.3953
38.5611
17.6398
27.3654
12.085
10.3038
11.8963
16.1627
12.1596
16.187
32.7154
68.123
183.009
54.5594
27.1026
12.2564
11.4051
16.8176
13.6538
16.8998
32.064
76.4811
245.284
100.413
17.5802
27.0095
12.0643
17.7526
13.8803
18.2823
32.5792
127.633
410.942
129.989
68.887
23.7891
11.6283
10.8545
12.6552
18.1016
32.187
67.8257
259.329
184.735
54.2269
22.72
12.0101
10.0659
9.97411
25.2635
31.1355
23.8814
69.0926
88.6819
43.7515
23.2006
11.3598
10.4117
9.92298
9.89611
114.825
104.838
118.946
99.7773
55.0879
22.8934
11.4746
9.93402
9.84685
9.82031
9.83095
214.287
41.242
25.3372
11.5276
9.92181
10.0921
9.98867
10.1457
9.76478
9.79246
9.86649
10.2272
11.7898
15.7708
14.3405
19.3107
13.0881
10.2715
9.77176
9.84111
10.0229
11.401
14.9458
14.3462
11.8793
12.7438
21.0901
12.1176
11.1143
9.88854
10.1264
11.9186
15.9345
14.782
21.5571
40.2084
33.5321
16.6176
35.0392
13.0257
10.1092
11.9176
16.5607
14.8121
21.4414
36.5708
27.8919
16.661
18.631
12.1844
11.1168
11.4227
16.7907
20.3816
37.8387
33.7688
31.2628
51.0101
23.8335
12.7042
10.1042
10.1288
13.0368
13.4883
21.8269
25.6715
23.1303
52.1051
21.7589
11.9718
10.6301
9.94554
9.89188
31.4221
31.6787
39.9078
34.4569
19.3329
51.5893
22.2856
12.3027
9.99048
9.89981
9.83038
9.85028
126.393
123.74
84.0748
19.7616
38.193
23.4278
12.1114
10.3139
9.8645
9.8248
9.83102
9.84171
77.2715
12.121
11.0767
10.1364
9.7594
9.77079
9.8157
9.92678
9.98987
10.0979
10.3446
10.1122
10.3336
9.93677
9.77624
9.80532
9.90153
10.3749
12.5472
15.989
14.3993
20.4861
13.3439
10.2493
10.1754
9.77609
9.82907
10.1001
12.2738
15.3998
12.5793
12.7102
11.7653
23.1132
12.3738
11.1028
9.86043
10.0974
12.1936
15.2364
12.9754
10.7762
11.8972
20.1024
13.0191
10.1841
10.1682
10.1483
11.894
15.7292
12.5321
11.0252
10.6599
15.788
12.2129
10.7387
9.9056
9.88683
12.9992
13.3234
12.767
10.6324
10.9976
16.2367
12.4647
10.0457
9.93791
9.83752
9.84231
12.017
11.6616
12.0809
14.0664
11.2729
15.7806
12.298
10.3275
9.83132
9.81901
9.83028
9.85125
35.419
36.402
44.1784
11.5834
13.7379
11.3222
10.1266
9.87556
9.817
9.7968
9.81128
9.83044
34.2001
85.1069
30.3835
9.75589
9.75665
9.759
9.77866
9.82255
9.78095
9.848
9.9185
10.0281
9.75805
9.7654
9.80148
9.88666
9.87509
9.91728
10.0996
9.9926
10.1446
9.77075
9.78889
9.83939
9.85755
10.117
9.81408
9.9117
9.92706
10.3748
9.78312
9.82639
9.83489
10.0041
9.80191
9.80356
9.9102
10.0667
10.18
9.83619
9.86047
10.0273
9.79655
9.80261
9.81166
10.0963
9.95415
9.95214
10.0204
10.1366
9.95929
9.8731
9.84058
9.9898
9.92763
9.81094
9.81704
12.9741
16.2165
11.9472
10.2942
10.1083
9.87089
9.85462
9.81532
9.81033
11.0999
11.0635
17.0223
11.3869
10.1781
9.85037
9.81137
9.75483
9.7563
9.75707
9.76014
9.76377
9.77952
9.78437
9.81072
9.81729
9.75581
9.75529
9.75667
9.76149
9.77792
9.76929
9.80031
9.84849
9.90478
9.75547
9.7593
9.7742
9.80028
9.76285
9.76917
9.80233
9.87898
9.91913
9.75758
9.76379
9.78014
9.76091
9.76611
9.76826
9.79569
9.84205
9.90352
9.76381
9.78506
9.75798
9.7589
9.76516
9.78147
9.80231
9.79632
9.79693
9.75687
9.76015
9.79778
9.76601
9.76525
9.77793
9.81733
9.8138
9.81273
9.87548
9.94606
9.90889
9.84568
9.7925
9.78444
9.77601
9.7809
9.79037
9.79129
9.7928
9.99006
9.93563
9.75707
9.76081
9.76251
9.77102
9.77742
9.79376
9.80531
9.75623
9.75717
9.76178
9.76541
9.77305
9.78967
9.81026
9.75753
9.76169
9.76119
9.76823
9.77497
9.79642
9.80721
9.75934
9.75832
9.75993
9.76565
9.7716
9.78643
9.80302
9.75614
9.75916
9.76005
9.77098
9.77471
9.78234
9.79439
9.76935
9.76807
9.75999
9.76399
9.77269
9.78174
9.79228
11.8359
15.6086
14.1481
18.6206
32.0864
38.7643
35.4534
33.6892
24.3991
92.1291
32.9916
15.6371
29.5332
79.3145
41.889
319.751
42.2958
29.9233
36.2855
72.6346
86.2587
174.078
53.3771
22.4508
22.9318
26.2927
19.4437
23.8886
533.378
35.3804
26.1019
39.7517
243.393
61.5295
38.9189
35.0352
36.3417
80.8845
139.641
251.034
206.157
103.572
73.5723
101.667
110.993
251.888
406.351
272.416
47.2954
31.8536
95.6561
30.1128
85.9817
54.1846
93.8117
75.5021
102.612
67.3958
367.773
126.335
42.5254
32.8796
28.2863
37.456
67.9257
73.5846
35.7811
19.0904
101.9
31.9495
32.7148
82.2724
59.8254
107.193
75.3043
86.5459
23.4353
48.4805
67.4845
94.4382
72.9036
94.0097
57.7823
189.861
92.6205
82.3543
32.4154
136.304
161.75
50.6177
76.9975
83.2845
124.608
85.9216
121.863
114.889
82.6237
41.9589
120.552
297.645
91.5794
49.436
26.8992
167.352
242.181
33.5599
46.094
257.079
28.1409
33.5521
180.15
25.2813
15.9149
209.823
371.058
214.532
29.3022
21.3213
17.4769
24.9638
374.722
305.659
238.565
38.1286
47.3416
77.396
80.2941
254.596
128.057
15.4765
41.1559
61.9811
96.1789
131.045
37.2128
64.762
110.125
30.3228
38.0038
145.65
131.226
34.5278
78.4159
52.3684
31.8674
33.1816
132.932
82.1806
163.924
20.3248
93.4176
66.4553
76.4904
126.907
109.581
126.354
98.7345
117.767
104.639
134.945
319.199
102.894
85.1198
66.3379
277.524
65.3154
27.3235
14.1351
57.482
20.87
16.9436
94.3865
83.7822
130.19
18.5593
32.3681
75.7891
82.4148
82.2719
24.0433
28.0616
72.3934
91.4488
73.5671
71.5655
60.6772
70.5409
86.1084
48.8338
76.2518
24.3278
33.5206
94.322
35.5982
12.3868
10.2475
12.5452
22.1994
38.143
24.3862
38.5443
12.1453
10.2412
12.3066
19.6442
34.8893
22.974
40.8182
12.4303
10.8801
12.7104
19.2068
45.7259
25.8962
28.7308
18.9581
31.3026
17.831
30.127
31.0131
78.0892
33.7619
52.5105
35.9458
38.7257
39.3329
31.0171
40.7087
124.486
40.3283
71.1405
99.5651
33.9814
39.5416
84.1637
235.722
45.028
29.0929
36.213
174.168
106.301
170.363
40.1699
114.076
32.4922
92.9602
27.8073
60.4855
63.774
327.892
167.567
75.966
74.1518
85.5192
71.0173
123.243
205.278
39.3253
89.4908
35.4355
257.725
188.385
230.708
54.0373
108.498
72.1679
30.9901
349.916
251.323
94.138
27.1176
154.442
73.7902
70.8763
150.465
79.6241
145.517
173.861
36.8879
33.1221
26.035
101.258
29.1314
32.3737
50.0663
64.9379
116.92
60.8003
547.53
73.8031
123.112
73.8258
112.458
46.5795
47.7867
60.5508
134.368
38.6624
779.305
202.946
73.2657
63.7779
61.6386
27.0136
35.6529
38.3146
145.444
26.238
20.5211
30.9794
135.323
112.633
36.8244
42.033
166.146
35.3966
40.4758
32.6576
22.6967
31.7852
72.2045
312.674
33.9221
39.5211
27.9088
26.4349
96.7007
175.832
62.0551
15.2481
31.1787
19.2875
39.529
84.8709
81.1375
264.267
36.6201
40.8679
19.374
110.949
258.349
117.876
474.679
96.9281
48.8733
153.47
196.364
199.194
53.3141
20.2488
28.0099
30.9087
35.0397
73.5257
63.5646
31.2011
23.5279
29.1066
106.028
136.896
100.076
112.645
81.4477
424.365
144.674
107.751
210.363
96.5869
29.9205
74.0247
89.7441
30.0726
35.8305
60.3273
69.7899
29.4218
33.2768
88.2066
46.3828
130.728
173.764
324.084
98.3249
57.3195
53.5545
117.613
135.562
43.9081
65.883
55.1709
26.9832
33.6915
95.2196
297.739
123.03
287.469
160.242
208.853
106.101
45.9938
147.326
266.183
39.5617
56.403
84.6083
68.4433
31.1211
31.1588
21.5128
38.2738
10.3654
12.6387
10.2566
12.5815
29.3964
19.8243
37.342
10.3254
12.4894
10.2858
12.3686
72.5169
49.1626
60.8111
81.9292
36.739
27.7319
30.2241
40.5426
42.4556
70.4131
81.3188
33.2039
45.9118
30.6731
30.4616
29.3502
24.3658
34.2447
11.1405
11.7524
17.7207
14.789
129.208
114.154
80.9278
67.0223
144.372
139.483
87.4083
77.6141
66.2555
144.617
48.9192
49.8115
38.9519
35.3984
81.9239
30.7353
144.85
96.7274
27.6257
28.1341
20.6598
41.0925
19.4089
39.7895
20.9914
33.3057
11.3076
16.244
36.6734
50.3108
37.0966
18.9015
34.4907
11.2847
14.301
44.6152
23.8486
28.0444
115.464
67.2088
67.4981
124.53
69.9562
54.8753
113.552
73.445
64.0864
121.947
84.0277
55.6426
140.11
56.1075
75.0807
98.8668
94.0132
54.5622
137.042
64.3227
61.1959
64.2051
60.7656
41.7669
61.4416
53.2943
60.6413
34.7131
69.3669
46.3672
82.3551
40.7678
63.6433
60.0673
58.612
45.2228
73.4297
580.673
83.1644
64.0219
77.1571
58.0565
109.995
357.608
69.883
59.1778
100.571
68.4937
62.3207
271.687
64.3588
68.5681
98.6121
57.939
99.2734
76.0593
420.626
62.0567
97.8269
198.038
69.3511
81.0956
128.088
302.033
68.3438
71.3477
206.999
52.4964
96.2502
350.229
300.075
93.907
50.0279
236.596
181.761
73.8518
70.5633
209.809
65.6667
242.708
266.635
178.944
99.0062
64.043
230.547
62.3197
182.904
274.478
111.989
132.775
121.346
342.264
142.161
140.539
308.448
129.21
227.59
259.97
397.521
406.496
232.595
336.552
227.145
413.438
59.7432
687.169
136.388
183.38
127.604
169.901
53.4949
180.98
63.7718
91.4085
164.244
62.8497
132.487
130.079
187.027
73.8256
70.6953
210.398
70.6303
144.321
110.567
164.932
96.3211
60.4862
126.923
62.1164
132.136
129.059
243.517
74.5487
98.9784
130.294
117.296
151.176
189.459
247.502
107.631
281.731
124.878
172.047
193.794
396.229
146.448
147.845
179.99
192.858
144.102
281.618
171.488
178.917
71.4552
70.413
66.895
637.033
70.6056
516.549
72.2668
105.986
420.65
324.495
107.045
407.297
62.3833
94.2867
150.895
61.2459
177.158
158.999
412.277
75.6734
69.2906
67.7487
306.125
194.178
94.509
56.6883
155.527
58.4641
269.305
60.4635
201.151
396.228
167.471
284.801
251.944
192.63
537.879
393.396
172.316
2407.85
161.244
736.469
199.967
806.9
152.725
135.544
127.932
90.9281
202.328
89.7279
125.604
150.029
133.991
61.4438
699.555
69.4305
140.312
58.8343
125.947
65.0641
121.524
60.264
93.3274
94.606
96.4657
111.312
55.2624
67.5734
115.188
57.0376
314.617
65.5938
78.2386
130.429
81.8893
54.4802
102.878
118.268
134.751
115.946
68.5937
68.091
44.3426
118.696
54.3264
49.4794
41.1777
46.9983
40.1364
103.404
137.565
44.2371
39.7807
124.287
311.948
43.8135
124.817
333.605
212.019
226.817
193.706
152.137
77.4394
82.5217
203.68
193.785
281.861
56.1127
68.2585
201.159
119.408
53.6466
309.448
88.2945
82.7037
112.662
56.7241
93.0175
63.5402
298.285
188.898
132.781
127.048
124.51
46.8441
104.315
781.731
50.3433
331.006
65.593
57.7595
38.5289
123.692
368.534
63.3755
347.923
70.1329
48.2667
38.8496
570.989
368.918
77.5619
467.435
65.6732
35.5749
255.281
124.807
315.711
62.2917
38.2865
140.472
286.162
599.622
129.342
157.599
191.514
285.214
349.272
153.789
172.909
195.977
209.772
80.7738
77.8994
77.9787
162.493
156.94
75.3487
129.208
100.457
227.887
139.152
418.733
114.49
158.711
132.204
136.23
377.694
147.491
419.871
116.388
169.889
119.918
223.72
345.417
93.0213
184.443
154.21
173.791
64.2352
86.725
27.5985
32.0704
48.9729
90.9648
19.2674
71.5565
143.604
56.4291
68.1459
67.8598
118.837
86.7765
130.59
228.189
64.0099
79.1151
61.9829
157.846
84.2322
80.3675
145.491
61.3999
94.5786
79.2839
234.471
65.7176
97.7081
159.823
64.0465
248.811
85.0858
115.175
87.1511
394.466
66.4938
61.8226
256.048
99.4963
123.283
97.9542
416.564
63.1129
69.0491
81.4342
67.45
237.456
82.1564
85.6615
205.14
70.4813
249.879
87.5915
111.039
85.1849
204.797
73.7347
69.3267
118.16
106.846
76.5719
92.4489
195.547
67.7753
131.679
209.248
125.492
84.9779
192.729
133.95
396.102
111.763
42.0541
223.777
141.877
145.142
227.028
234.364
84.1176
135.374
48.4361
89.7954
62.666
122.831
53.7077
222.136
379.366
99.9597
307.959
603.228
84.4416
417.815
91.7021
115.76
112.531
155.078
393.896
126.324
208.429
122.229
110.857
203.345
159.482
120.177
35.0223
99.3577
290.6
207.365
62.0061
104.554
293.349
122.56
79.5308
65.3504
140.837
372.251
161.599
250.967
70.1719
57.5663
111.924
127.216
190.862
77.796
119.988
125.165
70.3525
86.4029
21.7714
72.2903
139.793
576.63
129.006
214.488
98.1363
73.1527
135.585
117.762
84.0515
57.6947
139.175
112.033
130.167
114.603
110.134
80.391
152.784
68.6109
71.2366
65.7281
336.551
79.1743
73.5455
346.079
92.1294
64.3687
82.4776
342.177
59.5507
135.124
62.9992
91.6298
68.1138
79.4279
113.237
114.48
112.719
142.001
137.382
72.7505
345.688
66.9949
69.5101
75.1775
170.794
83.8796
55.2466
135.167
90.633
58.402
81.8937
150.083
64.8799
185.42
206.031
60.5339
48.8669
64.6148
62.2287
46.9844
51.7549
148.603
58.2545
62.8204
253.937
129.461
45.7614
196.448
413.413
73.3038
61.0384
124.177
83.9076
60.7792
13.8647
12.944
47.3105
28.6971
15.7106
10.3432
14.0533
46.8085
25.372
27.7626
36.1265
26.2035
27.8127
13.0354
10.6933
12.6215
28.2334
34.0203
34.5411
27.7738
12.5738
10.4676
12.6054
40.6728
41.0482
26.6785
33.664
14.278
10.3835
13.2917
30.4021
39.3521
29.1264
31.1963
12.6314
10.7369
12.5114
39.3725
29.1348
27.7783
34.8238
12.5991
10.2974
13.0502
22.925
40.4
26.4972
38.5523
13.099
44.2001
14.6191
32.5643
16.7095
37.5242
45.2028
19.9241
52.1595
21.464
26.5527
14.8285
37.0543
39.7155
37.9415
34.8144
29.6839
56.4157
46.0553
18.8112
15.2781
62.9364
18.1718
59.7159
60.6525
43.3227
29.8818
43.7924
36.4426
148.401
146.696
139.067
53.7311
37.9883
57.3365
18.3156
49.613
36.8432
79.8325
48.6224
37.727
32.4018
17.955
41.6875
30.8575
34.7071
41.1631
40.821
27.3063
117.156
29.4413
33.2894
43.5068
48.5381
38.2487
39.8436
19.3306
45.2745
32.4852
62.3563
198.56
71.6325
69.2607
85.7377
70.1439
122.976
158.017
72.4374
73.3799
181.939
271.095
135.878
138.675
71.7129
29.255
38.3106
41.3284
209.761
30.0618
20.7867
33.7383
420.395
72.9483
76.0481
65.5056
69.4544
148.509
219.595
175.67
286.245
156.033
200.493
126.669
29.7913
27.238
16.0395
31.9867
53.5339
40.246
80.5169
16.4252
19.5855
19.0791
54.7434
40.9883
79.6405
90.3403
62.995
245.234
79.0937
84.7091
50.9292
43.2398
71.3502
321.326
155.102
60.857
369.089
326.153
57.0063
51.7924
79.768
58.7834
198.774
41.3746
36.0879
44.0588
32.839
38.5593
34.4096
26.5304
223.582
133.165
156.421
166.114
90.6673
124.531
32.0772
26.2228
38.9443
34.1853
36.7017
34.483
25.4109
389.141
136.515
139.581
169.047
196.176
131.921
34.5656
49.2469
24.9747
34.4675
38.0644
32.716
22.705
105.692
120.909
93.0837
100.205
663.027
83.7079
348.259
88.1132
110.543
215.088
238.323
100.78
146.165
29.0723
23.658
36.8249
28.5505
35.0005
36.2124
24.3649
29.7923
41.3829
61.306
40.746
81.1893
83.1859
53.1578
24.3531
28.6015
24.6004
10.3793
12.8816
10.2823
12.8008
45.6225
30.916
38.0658
10.3742
13.5215
10.5435
13.9921
41.699
107.003
28.0473
17.5326
15.7868
38.3404
40.8866
120.401
119.879
267.352
67.3929
54.553
223.586
129.245
82.8699
492.327
57.3623
116.382
82.8572
82.6236
46.9706
35.257
89.2308
29.906
29.9066
19.4796
31.652
18.94
73.0163
28.6755
13.5858
60.3889
16.4971
97.5777
56.9412
64.3768
73.6946
37.1189
70.4896
69.7152
19.7314
94.0568
50.6738
105.539
162.762
106.518
184.755
47.9667
19.4606
25.306
69.7834
34.1699
86.6332
68.976
81.1721
20.6711
79.7015
58.9338
32.6899
80.4882
86.5464
102.116
161.966
109.188
153.896
113.853
156.248
119.073
145.469
111.443
151.878
82.8809
62.8131
66.8312
116.052
67.8101
73.6964
36.9052
21.9725
54.414
51.2389
22.2573
60.9862
52.086
203.199
183.896
196.093
199.092
56.9154
57.8807
65.6899
47.7099
44.6823
15.8977
24.7137
74.3927
19.2372
61.597
82.866
195.195
184.214
176.196
200.29
83.7775
139.488
106.07
115.521
76.9896
74.1666
64.1033
112.082
114.781
68.6229
176.523
204.33
108.867
92.1671
611.326
107.956
118
136.964
145.82
96.0431
103.89
72.7726
41.2387
69.5997
81.0477
92.9439
74.3214
145.547
112.565
172.446
130.963
262.87
94.2685
159.363
182.028
99.3521
105.431
129.682
252.045
109.401
91.9134
244.161
163.681
65.2806
103.004
126.112
65.3551
136.13
192.856
324.189
103.256
129.539
135.012
106.627
149.966
428.112
177.198
96.8626
149.072
336.497
96.2978
123.481
377.23
205.206
416.446
278.089
77.3325
98.0206
63.3848
227.769
52.0696
129.074
148.107
79.5896
77.7772
24.598
110.234
27.3606
131.698
72.4076
77.1615
65.2491
74.7973
147.919
60.5203
138.371
66.2961
226.138
183.533
294.622
479.916
125.3
187.805
191.318
159.245
176.389
352.153
20.1805
18.4883
69.1561
56.4665
34.7126
17.1742
66.7009
90.9801
56.3032
31.0335
57.3262
64.7868
19.6284
76.4983
33.5196
56.7415
21.8472
56.9465
28.3848
14.8697
70.7613
25.6878
54.6773
25.6547
61.4711
16.4608
64.1565
32.9656
54.4325
75.0226
91.506
77.6101
425.168
72.458
86.6673
57.9435
63.9899
244.634
732.246
76.8425
57.1495
58.9024
296.328
60.2781
235.543
76.5375
124.208
371.87
458.55
257.006
283.396
111.914
61.8469
59.8639
103.58
71.9538
164.383
89.7352
134.714
70.397
84.5486
127.804
69.7928
234.82
60.2182
105.145
104.035
316.39
52.5738
76.7226
73.5186
108.862
315.676
68.7253
84.0506
366.61
166.058
314.305
92.3984
59.7387
101.735
273.4
202.017
44.3175
82.7281
231.992
143.741
157.349
117.026
105.623
139.636
168.076
121.143
186.512
178.009
177.158
56.9684
89.5151
150.931
56.4746
87.4461
177.438
55.0829
66.0917
272.049
66.2106
76.1789
116.572
123.566
376.481
141.367
96.8253
165.876
213.208
134.958
175.963
122.748
163.238
129.599
163.958
37.0985
64.43
54.2573
66.628
58.2743
168.175
289.167
228.231
123.625
108.747
324.186
71.6312
236.083
39.0345
56.3515
50.222
46.2177
73.1468
20.2691
84.35
47.2929
21.4131
151.334
125.421
377.8
161.541
127.775
197.823
243.403
158.191
131.015
411.913
162.946
129.045
204.047
304.434
50.2819
52.2334
14.0455
21.6563
73.5441
55.2456
13.241
46.3006
66.6716
15.7983
19.5042
78.841
48.0001
18.8236
46.8879
77.0018
22.9539
13.2461
61.6038
48.8945
13.3649
251.409
127.65
444.791
162.183
120.367
225.309
404.901
211.749
304.529
320.028
127.866
129.364
178.535
168.574
73.4312
96.2813
73.036
54.557
91.4274
77.5503
177.835
62.7981
62.7463
86.9264
45.2242
116.182
65.6427
218.51
131.554
79.9727
67.753
126.723
173.919
65.2628
203.737
136.682
125.956
1187.71
244.035
549.927
76.108
86.9112
19.7949
17.8976
70.9811
56.9451
26.8402
53.7318
82.9319
92.0984
71.0807
93.2831
130.383
64.409
76.2703
36.3396
63.0976
108.743
34.3496
92.7647
185.355
155.387
130.618
99.112
139.293
89.793
75.6966
31.8168
68.3083
61.4339
136.419
92.7886
151.708
118.176
93.0003
56.0254
143.745
163.932
57.4389
200.833
275.189
95.6723
77.6323
61.2769
212.568
96.3011
293.413
364.234
167.727
212.453
88.962
241.305
171.685
81.7302
117.93
99.9101
129.492
120.602
105.386
170.185
106.084
610.547
147.483
124.484
98.527
110.818
116.373
835.297
114.597
95.5998
104.187
183.176
69.5167
161.52
138.863
125.916
221.547
208.682
58.5911
61.8547
68.0504
46.064
104.742
117.496
296.312
127.642
146.806
133.986
314.484
263.765
148.243
76.7757
111.47
68.2711
182.85
78.4196
157.359
14.6804
40.1389
17.6712
29.2061
17.3829
114.619
110.707
267.963
77.5532
47.5909
127.892
283.963
88.8081
81.1169
23.9909
18.7735
77.4692
75.3045
29.371
82.9344
37.1769
27.2439
38.9515
32.084
96.6015
19.997
81.6724
32.7332
23.3388
21.2529
90.7361
90.2889
29.0398
99.6743
73.2646
64.8072
35.915
71.1367
114.127
70.9763
88.5534
107.29
119.074
73.7953
66.1228
67.2932
70.9104
79.9431
92.8943
110.873
94.0409
136.757
70.1564
62.5374
76.3667
236.231
77.8591
75.0855
320.401
64.715
184.551
90.5376
349.775
75.8077
68.054
67.4907
84.8478
145.466
101.135
74.6037
141.127
58.9006
36.6381
64.9329
63.6554
99.7097
72.8437
166.319
192.65
65.3695
78.3475
32.1749
74.865
377.368
215.716
75.1601
57.3505
59.437
65.2631
71.2053
96.0715
72.6558
76.7247
27.7993
34.9205
68.2455
239.448
810.301
97.386
267.068
113.548
79.9283
56.5439
113.345
130.536
263.841
144.057
142.67
112.219
255.681
114.421
363.962
150.487
161.921
118.422
109.259
232.836
81.2385
212.107
174.213
60.809
85.4205
83.6592
57.0721
105.505
298.633
302.566
67.8023
224.742
73.5369
156.062
95.7761
295.442
54.9668
61.8774
97.4864
90.3305
163.364
225.074
310.901
228.742
72.1402
76.4893
59.4498
130.655
64.6529
200.626
276.469
124.409
94.0624
71.8144
92.3236
76.7865
86.7489
137.322
82.4927
52.2048
82.3883
78.562
249.794
266.884
402.859
174.864
128.781
125.327
221.118
399.876
111.301
82.711
87.0207
109.209
104.435
257.935
172.142
114.796
67.1352
69.2779
114.577
106.242
144.647
142.447
159.948
121.127
118.724
210.255
104.781
200.192
162.227
120.589
117.602
134.95
212.037
106.401
170.959
133.186
159.226
124.469
118.021
204.761
106.627
182.204
82.4474
114.744
179.31
105.428
49.5081
83.1112
53.2587
62.0968
121.512
102.411
101.514
99.6475
114.308
115.744
105.186
92.6147
52.0185
59.5265
116.04
81.6707
43.3091
58.5231
100.559
102.962
165.457
95.9963
113
117.767
93.1323
126.646
97.659
133.574
122.873
124.346
116.327
152.69
135.933
137.469
118.047
112.664
196.377
136.814
110.422
103.328
136.431
374.423
1188.67
154.97
101.453
99.5679
112.638
97.5996
108.687
97.8164
427.788
150.427
729.098
97.5573
153.216
105.519
96.7711
100.191
111.624
99.7836
64.5874
60.0071
64.1312
61.2091
39.8482
39.1014
159.409
151.159
317.578
204.969
503.04
178.175
282.298
126.991
155.008
200.551
514.348
390.548
86.8219
50.7853
78.139
54.4914
86.6576
63.699
81.6786
79.523
122.136
57.5457
78.1582
45.4998
57.9942
62.0233
762.147
89.8379
47.6031
75.2092
89.984
137.526
83.0688
288.657
103.21
93.826
65.4659
63.0982
51.7498
35.6164
348.535
99.1648
128.759
132.278
115.764
77.9671
53.862
136.458
123.698
176.7
163.44
588.037
140.081
124.624
142.627
109.538
147.023
545.897
356.368
133.991
983.935
176.734
618.372
368.715
89.7907
36.5448
47.9529
109.368
207.664
89.2077
314.388
103.412
106.554
60.8601
82.4785
170.243
87.7692
114.76
157.288
141.558
68.1749
144.107
70.9555
92.0188
145.799
134.562
102.472
96.4759
157.668
260.873
356.598
106.013
124.608
164.791
77.3463
99.7316
116.369
74.8963
215.833
77.1493
164.38
83.732
69.057
83.3403
85.1457
66.2764
86.5396
19.6376
142.09
75.3099
80.2395
31.9451
66.0464
596.937
72.3098
71.9534
72.582
41.4205
85.9447
379.489
74.5711
116.229
41.0652
45.8483
84.8524
105.657
69.1299
84.0461
79.1032
61.2467
50.711
42.5939
124.247
212.92
331.716
121.246
122.087
315.064
75.3393
90.2817
96.59
173.39
102.138
85.8535
68.3548
83.2237
124.923
214.704
104.978
83.8343
101.956
80.2316
86.7271
119.7
266.479
121.123
98.6736
311.314
123.761
97.532
191.283
102.922
328.833
85.7347
87.3757
256.257
71.4114
101.184
247.403
73.248
118.224
189.804
112.561
119.957
139.492
154.691
150.032
137.747
108.867
202.755
157.402
248.115
183.394
104.18
104.309
95.4299
246.013
102.323
135.717
129.572
160.103
215.445
199.823
132.755
235.785
170.392
82.5991
116.734
189.012
248.184
108.14
69.0525
61.6771
34.0152
189.458
100.687
75.2788
102.106
40.0647
51.1042
31.1715
102.072
80.6982
67.3264
80.1618
86.6288
65.5201
81.4738
77.8152
82.2234
33.3018
22.8853
111.852
52.5985
100.466
73.4509
71.8456
24.195
48.3584
90.9567
52.5501
82.1806
78.7263
85.3246
32.7678
24.7709
112.714
267.383
74.8219
119.39
114.413
217.639
51.0303
109.385
114.184
264.966
63.0955
48.5972
217.358
113.408
105.554
309.367
290.682
110.855
96.5278
82.5131
120.544
155.761
65.1627
124.535
125.135
262.424
68.7755
116.949
101.68
135.077
50.5116
43.1172
185.767
128.089
93.9417
99.0663
90.2714
516.865
314.889
93.0505
123.818
125.874
280.855
95.9061
132.19
268.863
83.9355
135.931
149.344
100.246
104.134
81.175
63.0595
260.325
81.4182
97.8749
64.1884
58.9731
46.2776
112.858
167.075
111.269
155.608
214.567
119.392
175.644
477.156
130.416
201.164
127.468
129.702
101.095
209.891
152.669
117.061
240.323
131.287
115.233
58.1319
126.242
86.4183
517.513
123.577
114.525
93.9998
61.7116
35.6301
35.1567
134.741
85.6584
110.024
287.686
88.1669
107.137
103.718
125.452
546.335
106.433
193.114
118.048
189.846
119.88
51.1807
43.5741
88.4567
41.7182
127.908
91.5104
109.7
89.667
107.393
108.324
120.481
103.878
92.4488
64.1305
47.6163
133.867
52.1209
100.747
116.031
282.83
62.4493
114.647
122.903
56.3437
279.649
100.44
137.868
503.483
116.723
143.937
116.828
131.677
297.651
111.996
108.907
203.152
89.8762
41.6879
43.6597
78.9952
89.0025
89.0602
36.6286
64.17
87.8136
36.8825
89.986
205.65
199.583
199.664
178.465
190.742
196.035
90.4376
44.5063
90.8871
44.776
88.2142
34.4895
62.4629
72.4446
36.0365
75.9049
86.7483
201.839
193.748
78.3873
40.2761
41.086
74.3328
84.4167
160.594
183.037
80.7453
58.578
49.2483
80.8121
33.5705
57.6972
85.1005
34.1182
70.267
95.8606
70.4532
41.8886
40.8999
67.9932
84.0695
187.89
63.8561
44.2453
33.5756
113.938
34.0237
88.2031
87.9846
74.4426
85.8016
43.3111
60.2927
42.1783
87.2689
84.8717
192.643
141.607
169.285
142.156
191.527
175.325
197.223
144.798
69.0886
45.7392
37.9775
110.546
34.9099
88.0304
88.559
67.9469
41.0396
60.1972
70.983
41.0901
81.0614
81.2968
187.892
111.878
139.071
131.181
90.3363
125.562
94.8854
124.545
93.8243
133.253
117.454
117.478
95.7471
97.0175
122.673
113.255
79.5169
35.5818
36.6197
118.065
28.7138
107.644
103.819
79.7926
153.474
72.4251
123.93
74.3191
119.441
101.79
116.071
87.5111
43.8957
57.3756
83.7402
93.9517
35.1484
97.6614
74.1684
91.7323
118.178
85.8076
107.023
193.347
135.972
107.5
135.063
126.179
279.537
110.719
119.392
115.104
121.298
82.6468
112.21
104.125
109.523
114.831
139.814
142.032
103.928
95.1145
60.2658
163.492
119.374
134.412
102.008
98.1757
122.391
108.964
257.419
157.927
247.962
159.141
102.194
201.493
110.045
128.599
140.628
251.196
101.174
97.3991
178.781
97.0612
253.18
123.073
254.038
90.8504
126.402
253.852
106.398
145.76
133.005
250.3
97.9842
130.371
248.776
101.399
303.361
158.146
250.527
160.817
101.648
299.039
98.8506
269.282
116.77
258.326
103.855
119.337
297.762
98.1885
124.905
250.625
250.343
97.5069
124.762
295.802
93.7145
74.8125
163.686
174.663
97.7945
77.6015
153.727
107.416
154.268
280.027
316.177
156.641
107.645
145.303
104.529
141.942
140.681
275.826
153.135
104.777
139.373
104.137
275.88
134.536
308.728
114.141
132.587
160.415
80.7682
79.9731
148.164
181.782
116.142
66.1128
168.483
121.177
145.873
176.319
267.32
147.848
114.059
153.015
104.127
162.016
144.603
167.443
146.872
114.677
149.227
118.727
169.036
135.791
275.851
112.113
130.519
163.422
378.876
424.203
107.855
133.941
163.01
113.405
166.084
248.716
133.106
82.2039
109.238
1010.22
139.113
175.278
295.017
129.795
114.351
121.479
322.658
1843.02
157.213
223.909
324.81
358.757
968.009
266.077
209.118
139.107
83.7438
88.5664
386.838
296.634
351.11
142.696
147.193
519.292
364.28
300.488
130.456
120.886
122.927
242.428
503.049
596.423
204.904
272.274
205.503
251.851
675.177
313.455
477.361
321.9
2292.66
498.642
231.471
228.185
368.202
271.501
2018.23
422.61
207.31
303.983
754.176
219.509
293.716
289.499
401.059
223.137
376.05
371.159
144.589
165.599
144.374
91.9675
165.789
101.305
171.573
181.71
144.522
158.557
108.941
188.845
100.915
300.579
145.098
136.199
112.037
190.198
148.87
304.886
180.297
137.763
132.11
51.7545
98.7817
161.575
112.24
99.6034
59.2999
152.571
34.7939
161.538
130.039
168.933
52.3891
94.7371
162.939
38.6462
103.775
82.4194
155.552
76.8809
48.201
154.398
108.938
139.71
194.368
113.058
127.486
102.708
170.928
107.775
149.278
241.699
152.616
107.764
144.56
177.387
125.526
169.721
116.478
226.068
121.683
149.533
186.967
92.719
106.398
153.478
129.206