/*--------------------------------*- C++ -*----------------------------------*\
  =========                 |
  \\      /  F ield         | OpenFOAM: The Open Source CFD Toolbox
   \\    /   O peration     | Website:  https://openfoam.org
    \\  /    A nd           | Version:  10
     \\/     M anipulation  |
\*---------------------------------------------------------------------------*/
FoamFile
{
    format      ascii;
    class       volScalarField;
    location    "0.05";
    object      p;
}
// * * * * * * * * * * * * * * * * * * * * * * * * * * * * * * * * * * * * * //

dimensions      [0 2 -2 0 0 0 0];

internalField   nonuniform List<scalar> 
115093
(
108.121
108.867
108.045
109.062
107.882
109.308
107.772
109.511
108.026
108.977
107.927
109.17
107.811
109.372
107.709
109.556
108.206
108.807
108.116
109.027
107.92
109.309
107.736
109.568
108.132
108.888
107.982
109.184
107.785
109.48
107.605
109.711
108.113
109.026
107.892
109.356
107.655
109.659
107.988
108.92
107.926
108.985
107.821
109.252
107.412
109.837
108.182
108.793
108.068
108.926
107.901
109.266
107.502
109.904
108.139
108.825
108.025
108.986
107.868
109.271
107.516
109.823
108.294
108.785
108.124
108.95
107.863
109.333
107.323
110.059
108.215
108.91
108.014
109.091
107.723
109.564
107.245
110.055
108.244
108.878
107.842
109.108
107.825
109.157
107.773
109.29
107.888
109.469
107.675
110.097
108.245
108.763
108.172
108.963
108.001
109.315
107.882
109.467
107.632
109.988
108.098
108.923
107.991
109.13
107.921
109.375
107.73
109.643
107.355
110.164
108.372
108.731
108.272
108.983
108.051
109.32
107.728
109.788
107.406
110.069
107.908
108.653
108.188
109.129
107.9
109.579
107.553
109.923
107.098
110.294
107.963
107.927
108.149
109.026
107.991
109.382
107.529
109.961
107.239
110.172
107.982
108.13
108.042
109.326
107.692
109.261
107.565
109.428
107.461
109.674
107.055
110.174
106.872
110.409
107.847
109.065
107.779
109.155
107.701
109.272
107.419
109.796
106.968
110.126
108.07
108.869
108.005
108.862
107.596
109.167
107.561
109.805
106.954
110.253
108.196
108.682
108.333
107.948
107.84
107.904
107.696
109.727
107.12
110.073
108.333
108.729
107.774
108.048
107.961
108.155
108.12
109.616
107.068
110.252
107.727
107.999
107.924
108.081
108.017
108.17
108.212
109.501
107.016
110.208
108.058
107.942
107.934
108.061
108.023
108.141
107.462
110.373
106.941
110.46
108.258
108.01
107.806
108.078
108.023
109.242
107.397
110.011
106.871
110.412
108.283
108.292
107.725
107.995
107.735
109.834
109.939
106.793
110.395
106.716
107.525
109.338
107.59
109.203
107.591
109.216
107.081
107.757
107.074
110.685
108.043
108.917
107.999
108.967
108.271
107.963
107.734
108.099
108.15
110.077
107.888
108.884
108.193
107.86
107.842
107.932
107.837
108.093
108.437
110.229
108.41
108.531
107.752
108.187
108.093
108.131
107.919
108.179
108.26
110.01
108.216
107.982
108.169
108.219
108.302
108.371
108.3
108.138
107.061
110.598
107.933
108.229
108.219
108.373
108.379
108.429
108.603
109.609
107.176
110.113
108.281
108.413
108.381
108.446
108.355
108.498
108.139
109.681
106.742
110.517
108.302
108.043
107.941
108.504
108.418
108.138
107.381
110.237
107.074
110.361
108.489
108.449
108.101
108.554
108.11
109.474
109.907
106.787
110.32
106.379
107.589
109.35
107.588
109.197
108.098
108.012
107.676
108.077
108.019
110.273
107.94
108.913
107.787
109.025
107.431
108.165
108.298
108.143
108.539
107.918
105.699
107.863
108.978
107.413
108.108
108.053
108.515
107.937
108.194
108.694
108.181
106.194
108.596
107.778
108.074
108.49
107.909
108
107.969
108.295
108.797
108.291
105.809
107.498
108.111
108.409
108.464
108.441
108.479
108.194
108.825
108.384
110.306
106.33
108.028
108.395
108.457
108.405
108.429
108.619
108.709
108.356
106.837
110.439
106.689
108.05
108.516
108.453
108.46
108.547
108.412
108.662
110.034
106.878
110.484
106.651
108.663
108.697
108.522
108.446
108.557
108.465
107.273
110.188
106.801
110.542
106.782
108.578
108.267
108.554
109.61
109.97
106.738
110.367
106.344
107.438
109.411
107.574
109.176
107.93
108.055
107.735
108.135
108.066
110.315
107.962
108.982
107.784
109.058
107.633
108.225
107.836
108.215
108.539
108.142
105.913
107.682
109.067
107.671
108.301
108.318
108.389
108.642
109.175
109.366
109.51
106.187
108.646
108.14
108.289
108.647
108.331
108.744
108.856
109.087
109.064
109.152
106.062
107.806
108.284
108.526
108.686
108.826
108.488
108.791
108.825
108.627
110.447
106.156
108.082
108.473
108.705
108.773
108.937
108.773
108.815
109.002
106.973
110.384
106.848
108.065
108.109
108.673
108.799
108.703
108.736
108.502
109.94
106.647
110.628
106.434
108.676
108.725
108.847
108.589
108.662
108.617
107.393
110.024
106.99
110.413
106.943
108.608
108.505
108.43
109.573
110.076
106.657
110.641
106.371
107.42
109.523
107.442
109.354
107.953
108.33
107.79
108.273
106.731
110.909
107.805
109.064
107.763
109.058
107.856
108.491
108.255
108.821
108.248
110.259
105.907
107.895
109.002
108.064
108.462
108.436
108.721
108.583
108.769
108.755
108.958
105.792
108.226
108.653
108.1
108.508
108.62
108.638
108.599
108.911
108.555
110.218
106.034
108.374
108.167
108.472
108.208
108.468
108.551
108.55
108.967
107.023
110.574
106.64
107.894
108.334
108.633
108.581
108.424
108.564
108.59
109.788
106.766
110.48
106.452
107.912
108.056
108.112
108.475
108.471
108.493
108.77
107.319
110.281
106.83
110.649
106.676
108.741
108.784
108.74
108.587
108.542
108.501
109.415
107.171
110.352
106.537
110.72
106.546
108.589
108.491
107.806
109.893
107.309
109.608
107.353
109.626
107.399
109.692
107.019
110.404
106.742
110.659
107.618
109.367
107.564
109.388
107.836
108.477
107.893
108.502
106.765
110.877
106.631
107.746
109.142
107.843
108.892
107.907
108.626
108.175
108.738
108.146
110.312
105.934
108.077
108.875
108.208
108.385
108.259
108.52
108.246
108.839
106.994
110.727
106.81
108.136
108.855
108.012
108.444
108.202
108.529
108.277
109.832
106.897
110.529
106.298
107.868
108.194
108.241
108.363
108.209
108.639
107.425
110.028
107.032
110.489
106.916
108.345
108.056
108.314
108.218
108.387
108.288
109.46
107.337
110.371
106.523
110.783
106.391
108.394
108.493
108.206
108.587
108.321
107.743
109.597
107.203
110.29
106.809
110.554
106.843
108.512
108.611
108.528
107.141
109.87
106.986
110.061
106.888
110.123
106.79
110.47
106.327
107.466
109.502
107.372
109.739
107.221
110.031
106.756
110.655
106.417
107.533
109.499
107.386
109.702
107.155
110.021
106.891
110.332
106.512
107.812
109.206
107.726
109.453
107.392
110.008
106.912
110.568
106.531
107.924
109.157
107.703
109.517
107.444
109.923
107.035
110.327
106.641
108.076
109.093
107.926
109.465
107.419
110.09
106.932
110.63
106.383
107.885
108.153
107.93
109.528
107.477
109.995
106.86
110.614
106.477
108.166
108.312
108.033
109.111
107.391
110.131
106.663
107.076
109.907
106.978
110.107
106.767
110.417
106.466
110.854
106.224
107.263
109.755
107.12
109.921
107.009
109.899
106.944
110.264
106.427
107.431
109.541
107.363
109.669
107.256
109.832
107.077
110.285
106.629
107.584
109.427
107.481
109.495
107.382
109.68
107.174
110.091
106.628
107.711
109.328
107.603
109.478
107.407
109.841
107.044
110.551
106.458
107.851
109.215
107.708
109.393
107.451
109.739
106.953
110.411
106.614
107.93
109.267
107.735
109.517
107.319
110.189
106.714
110.788
106.3
107.999
109.122
107.807
109.445
106.976
110.18
106.643
110.622
106.251
111.063
106.025
107.014
110.169
106.685
110.569
106.366
110.909
106.183
107.195
110.013
106.801
110.53
106.375
110.985
106.126
107.246
109.999
106.867
110.468
106.477
110.842
106.254
107.321
109.969
106.843
110.538
106.389
110.983
106.122
107.403
109.922
106.927
110.471
106.446
110.914
106.207
108.167
108.471
108.131
108.505
108.441
108.526
108.382
108.559
108.405
108.561
108.555
108.499
108.478
108.644
108.444
108.539
108.614
108.494
108.509
108.668
108.516
108.595
108.517
108.398
108.414
108.526
108.435
108.559
108.538
108.518
108.077
108.65
108.58
108.513
108.646
108.572
108.583
108.731
108.778
108.674
108.785
108.584
108.442
108.644
108.834
108.658
109.209
108.779
108.474
108.558
108.582
108.682
108.617
108.867
108.597
108.46
108.56
108.776
108.871
108.62
108.704
108.412
108.113
108.67
108.69
108.599
108.652
108.663
108.602
108.175
108.601
108.757
108.655
108.538
108.721
108.521
108.702
108.626
108.873
108.561
108.555
108.529
108.793
108.54
108.549
108.463
108.594
108.658
108.533
108.469
108.596
108.694
108.654
108.614
108.775
108.742
108.534
108.503
108.833
108.638
108.478
108.581
108.499
108.556
108.618
108.476
108.507
108.654
108.539
108.555
108.595
108.566
108.54
108.833
108.539
108.748
108.55
108.504
108.537
108.522
108.513
108.982
108.746
108.481
108.451
108.394
108.649
108.828
108.614
108.442
108.536
108.386
108.592
108.548
108.726
108.701
108.587
107.944
108.698
108.73
108.64
108.63
108.765
108.642
108.02
108.757
108.785
108.585
108.519
108.458
108.474
108.547
108.554
108.548
108.648
108.676
108.641
108.755
108.712
108.629
108.634
108.761
108.545
108.602
108.649
108.605
108.56
108.539
108.65
108.567
108.581
108.444
108.47
108.638
108.354
108.54
108.502
108.548
108.559
108.475
108.607
108.594
108.53
108.501
108.536
108.542
108.615
108.552
108.625
108.569
108.638
108.26
108.523
108.434
108.221
108.408
108.086
108.499
108.521
108.487
108.459
108.174
108.456
108.096
108.488
108.477
108.499
108.448
108.184
108.451
108.289
108.482
108.445
108.497
108.532
108.061
108.078
108.128
108.56
108.34
108.63
108.512
108.471
108.097
108.576
108.437
108.454
108.763
108.76
108.631
108.469
108.654
108.319
108.554
108.868
108.675
108.819
108.123
108.817
108.829
109.013
108.85
108.704
108.548
108.571
108.619
108.773
108.646
108.842
108.952
108.562
108.519
108.477
108.757
108.545
108.553
108.779
108.684
108.602
108.687
108.659
108.872
108.816
108.505
108.624
108.471
108.641
109.065
108.731
108.636
108.526
108.543
108.533
108.443
108.502
108.543
108.452
108.522
108.609
108.132
108.216
108.667
108.678
108.662
108.546
108.526
108.568
108.512
108.615
108.618
108.749
108.78
108.586
108.61
108.482
108.727
108.861
108.489
108.62
108.487
108.472
108.57
108.469
108.571
108.472
108.528
108.551
108.567
108.559
108.495
108.506
108.521
108.565
108.832
108.827
108.125
108.497
108.709
108.556
108.562
108.854
108.563
108.125
108.512
108.585
108.495
108.914
108.754
108.714
108.575
108.656
108.609
108.701
108.627
108.828
108.885
108.155
108.576
108.503
108.506
108.376
108.582
108.724
108.733
108.523
108.858
108.794
108.788
108.527
108.552
108.542
108.597
108.574
108.618
108.882
108.383
108.472
108.562
108.485
108.449
108.648
108.667
108.747
108.084
108.586
108.705
108.746
108.66
108.526
108.395
108.649
108.518
108.601
108.613
108.857
108.228
108.674
108.787
108.496
108.551
108.707
108.675
108.78
108.575
108.711
108.623
108.508
108.505
108.322
108.451
108.483
108.546
108.548
108.538
108.645
108.612
108.512
108.551
108.667
108.568
108.547
108.612
108.471
108.504
108.51
108.63
108.616
108.574
108.479
108.52
108.376
108.026
108.416
108.148
108.605
108.491
108.512
108.432
108.165
108.471
108.201
108.443
108.582
108.743
108.518
107.677
108.151
108.418
108.448
108.696
108.861
108.59
107.686
108.688
108.486
108.595
108.48
108.512
108.425
108.474
108.224
108.547
108.204
108.519
108.537
108.579
108.468
108.684
108.565
108.526
108.691
108.517
108.803
108.435
108.616
108.343
108.634
108.516
108.553
108.564
108.575
108.539
108.228
108.47
108.359
108.083
108.474
108.473
108.39
108.147
108.29
107.875
108.493
108.621
108.626
108.403
108.303
108.406
107.963
108.07
108.588
108.573
108.56
108.511
108.634
108.558
108.62
108.634
108.537
108.739
108.747
108.693
108.489
108.622
108.515
108.579
108.555
108.572
108.639
108.73
108.5
108.478
108.468
108.471
108.484
108.709
108.491
108.668
108.586
108.585
108.627
108.553
108.486
108.651
108.662
108.501
108.574
108.51
108.546
108.532
108.51
108.527
108.57
108.539
108.539
108.514
108.561
108.512
108.554
108.546
108.523
108.58
108.592
108.518
108.455
108.67
108.725
108.609
108.416
108.688
108.687
108.582
108.758
108.827
108.574
108.533
108.61
108.684
108.465
108.647
108.592
108.568
108.664
108.527
108.683
108.573
108.476
108.57
108.656
108.545
108.736
108.543
108.618
108.63
108.406
108.651
108.395
108.607
108.551
108.8
108.569
108.554
108.65
108.52
108.569
109.008
108.573
108.608
108.738
108.607
108.522
108.736
109.018
108.623
108.527
108.678
108.47
108.664
108.713
108.657
108.689
108.718
108.582
108.349
108.567
108.589
108.383
108.685
108.602
108.527
108.438
108.54
108.55
108.505
108.763
108.502
108.582
108.549
108.355
108.557
108.377
108.595
108.473
108.52
108.774
108.65
108.697
108.643
108.798
108.522
108.703
108.643
108.29
108.693
108.563
108.492
108.474
108.647
108.763
108.435
108.538
108.651
108.3
108.546
108.439
108.602
108.891
108.86
108.744
108.834
108.633
108.642
108.72
108.702
108.68
108.775
108.426
108.316
108.571
108.604
108.323
108.644
108.553
108.447
108.502
108.481
108.474
108.648
108.439
108.564
108.365
108.564
108.335
108.49
108.788
108.708
108.692
108.632
108.716
108.713
108.629
108.792
108.687
108.592
108.524
108.577
108.424
108.424
108.546
108.577
108.615
108.659
108.615
108.439
108.624
108.575
108.601
108.59
108.555
108.432
108.565
108.592
108.533
108.64
108.593
108.629
108.644
108.575
108.644
108.599
108.546
108.519
108.589
108.598
108.627
108.684
108.624
108.578
108.719
108.73
108.716
108.695
108.63
108.612
108.695
108.785
108.593
108.612
108.729
108.722
108.719
108.533
108.542
108.556
108.718
108.505
108.496
108.544
108.53
108.326
108.571
108.856
108.423
108.526
108.535
108.512
108.629
108.537
108.566
108.519
108.541
108.493
108.591
108.59
108.559
108.526
108.564
108.366
108.534
108.549
108.523
108.571
108.549
108.55
108.492
108.617
108.612
108.594
108.609
108.695
108.753
108.584
108.596
108.684
108.683
108.515
108.553
108.834
108.557
108.753
108.666
108.746
108.478
108.654
108.543
108.546
108.55
108.637
108.497
108.61
108.344
108.6
109.011
108.501
108.608
108.589
108.359
108.651
108.684
108.867
108.451
108.295
109.015
108.587
108.67
108.484
108.416
108.716
108.449
108.52
108.834
108.487
108.497
108.51
108.635
108.355
108.536
108.11
108.659
108.475
108.434
108.638
108.164
108.624
108.121
108.688
108.361
108.481
108.364
108.184
108.59
108.156
108.478
108.426
108.549
108.423
108.398
108.49
108.643
108.393
108.403
108.366
108.632
108.286
108.489
108.681
108.395
108.499
108.539
108.541
108.488
108.549
108.494
108.547
108.512
108.576
108.447
108.384
108.61
108.627
108.62
108.415
108.627
108.499
108.478
108.561
108.493
108.533
108.586
108.481
108.453
108.365
108.606
108.579
108.608
108.624
108.51
108.368
108.543
108.635
108.575
108.627
108.596
108.671
108.55
108.519
108.612
108.6
108.531
108.671
108.591
108.505
108.493
108.708
108.605
108.67
108.647
108.629
108.414
108.637
108.696
108.527
108.647
108.446
108.554
108.68
108.732
108.703
108.468
108.622
108.557
108.445
108.478
108.63
108.504
108.276
108.496
108.627
108.463
108.322
108.522
108.526
108.591
108.615
108.538
108.546
108.605
108.581
108.738
108.636
108.619
108.604
108.596
108.571
108.641
108.668
108.616
108.578
108.626
108.616
108.635
108.507
108.592
108.629
108.64
108.539
108.657
108.566
108.577
108.579
108.425
108.566
108.632
108.615
108.606
108.631
108.575
108.618
108.598
108.651
108.553
108.595
108.558
108.482
108.463
108.517
108.484
108.518
108.499
108.46
108.419
108.621
108.611
108.583
108.485
108.636
108.525
108.634
108.598
108.63
108.433
108.522
108.385
108.476
108.675
108.504
108.471
108.635
108.559
108.562
108.475
108.521
108.523
108.37
108.657
108.666
108.568
108.531
108.547
108.569
108.734
108.629
108.578
108.602
108.478
108.587
108.489
108.502
108.776
108.532
108.495
108.656
108.621
108.583
108.478
108.552
108.539
108.4
108.487
108.524
108.463
108.413
108.49
108.48
108.55
108.536
108.56
108.522
108.668
108.525
108.604
108.488
108.546
108.569
108.61
108.598
108.631
108.615
108.574
108.158
108.146
108.596
108.566
108.421
108.297
108.232
108.203
108.001
108.519
108.634
108.535
108.511
108.292
108.225
108.422
108.524
108.652
108.529
108.553
108.249
108.429
108.046
108.397
108.513
108.651
108.509
108.435
108.414
108.316
108.571
108.501
108.569
108.552
108.21
108.401
108.005
108.367
108.608
108.6
108.469
108.141
108.436
108.163
108.488
108.467
108.553
108.591
108.202
108.498
108.121
108.425
108.094
108.164
108.498
108.614
108.569
108.649
108.457
108.115
108.076
108.51
108.437
108.479
108.605
108.408
108.51
108.381
108.487
108.684
108.375
108.515
108.655
108.764
107.931
108.809
108.636
108.957
108.871
109.024
108.53
108.526
108.459
108.712
108.692
108.794
108.64
108.464
108.5
108.502
108.557
108.496
108.763
108.487
108.716
108.277
108.217
108.932
108.675
108.804
108.576
108.48
108.466
108.393
108.497
108.459
108.763
108.621
108.52
108.525
108.511
108.79
108.509
108.614
108.788
108.566
108.454
108.694
108.534
108.65
108.589
108.572
108.617
108.594
108.572
108.802
108.687
108.738
108.541
108.423
108.491
108.486
108.774
108.47
108.58
108.687
108.505
108.513
108.965
108.872
108.87
108.523
108.685
108.595
108.682
108.68
108.782
108.661
108.483
108.265
108.729
108.463
108.588
108.616
108.891
108.626
108.699
108.586
108.831
108.726
108.68
108.676
108.384
108.722
108.569
108.546
109.054
108.732
108.468
108.877
108.546
108.595
108.722
108.813
108.552
108.661
108.582
108.172
108.276
108.389
108.663
108.455
108.618
108.531
108.643
108.668
108.703
108.492
108.618
108.456
108.18
108.262
108.167
108.581
108.56
108.384
108.497
108.571
108.64
108.671
108.366
108.605
108.551
108.127
108.377
108.543
108.608
108.529
108.595
108.663
108.657
108.615
108.584
108.707
108.527
108.461
108.622
108.422
108.54
108.517
108.42
108.478
108.433
108.284
108.376
108.538
108.593
108.563
108.584
108.567
108.563
108.578
108.686
108.586
108.711
108.481
108.099
108.543
108.187
108.534
108.548
108.593
108.393
108.108
108.351
108.36
108.598
108.746
108.59
108.401
108.251
108.137
108.554
108.558
108.555
108.652
108.812
108.457
108.588
108.761
108.546
108.596
108.529
108.533
108.723
108.54
108.385
108.424
108.571
108.497
107.988
108.271
108.154
108.359
108.525
108.431
108.425
108.546
108.381
108.554
108.598
108.482
108.535
108.419
108.49
108.535
108.441
108.54
108.689
108.575
108.593
108.626
108.561
108.301
108.485
108.344
108.709
108.451
108.653
108.493
108.533
108.543
108.579
108.812
108.392
108.63
108.554
108.582
108.616
108.685
108.569
108.578
108.612
108.597
108.609
108.57
108.551
108.566
108.588
108.729
108.537
108.513
108.503
108.503
108.397
108.538
108.518
108.387
108.497
108.511
108.537
108.583
108.55
108.567
108.505
108.521
108.536
108.493
108.517
108.462
108.403
108.62
108.379
108.646
108.49
108.555
108.606
108.563
108.589
108.561
108.604
108.571
108.588
108.522
108.538
108.549
108.491
108.548
108.532
108.534
108.528
108.546
108.577
108.539
108.502
108.723
108.518
108.525
108.495
108.694
108.566
108.543
108.602
108.869
108.512
108.544
108.69
108.613
108.711
108.717
108.725
108.656
108.713
108.682
108.604
108.699
108.778
108.608
108.758
108.604
108.682
108.602
108.337
108.625
108.485
108.401
108.597
108.583
108.582
108.841
108.647
108.833
108.652
108.822
108.532
108.462
108.594
108.564
108.696
108.505
108.691
108.049
108.787
108.871
108.906
108.699
108.555
108.361
108.545
108.335
108.632
108.644
108.719
108.603
108.698
108.659
108.658
108.644
108.743
108.58
108.884
108.737
108.74
108.654
108.633
108.608
108.702
108.626
108.563
108.402
108.673
108.618
108.556
108.692
108.653
108.268
108.475
108.563
108.506
108.544
108.385
108.468
108.61
108.618
108.624
108.528
108.612
108.469
108.483
108.762
108.665
108.589
108.624
108.609
108.42
108.651
108.643
108.598
108.71
108.568
108.729
108.655
108.543
108.607
108.531
108.88
108.533
108.799
108.566
108.684
108.555
108.52
108.42
108.668
108.621
108.744
108.62
108.706
108.715
108.678
108.717
108.793
108.586
108.489
108.427
108.559
108.561
108.586
108.349
108.472
108.615
108.362
108.47
108.563
108.505
108.438
108.625
108.607
108.584
108.478
108.535
108.561
108.535
108.571
108.496
108.601
108.592
108.604
108.634
108.647
108.642
108.586
108.579
108.539
108.627
108.768
108.568
108.659
108.626
108.555
108.677
108.492
108.598
108.5
108.532
108.878
108.754
108.875
108.779
108.809
108.621
108.495
108.384
108.533
108.614
108.369
108.546
108.512
108.588
108.511
108.414
108.462
108.556
108.526
108.59
108.507
108.538
108.526
108.526
108.546
108.598
108.597
108.619
108.602
108.615
108.535
108.484
108.497
108.485
108.526
108.517
108.546
108.663
108.614
108.611
108.616
108.653
108.572
108.542
108.572
108.58
108.59
108.565
108.587
108.517
108.581
108.599
108.519
108.593
108.72
108.734
108.644
108.706
108.476
108.745
108.669
108.788
108.592
108.736
108.793
108.56
108.555
108.669
108.628
108.508
108.518
108.687
108.602
108.521
108.579
108.709
108.54
108.43
108.743
108.54
108.437
108.637
108.608
108.503
108.503
108.6
108.6
108.505
108.454
108.592
108.622
108.686
108.59
108.602
107.491
108.744
108.885
108.798
108.685
108.829
108.463
108.465
108.642
108.484
108.474
108.529
108.784
108.474
108.461
108.541
108.274
108.576
108.585
108.493
108.324
108.334
108.552
108.596
108.333
108.529
108.517
108.322
108.556
108.394
108.261
107.952
108.163
108.089
108.428
108.731
108.471
108.447
108.518
108.69
108.403
108.554
108.545
108.593
108.289
108.417
108.475
108.214
108.519
108.538
108.708
108.616
108.608
108.655
108.648
108.652
108.597
108.532
108.553
108.475
108.696
108.525
108.496
108.707
108.49
108.456
108.627
108.481
108.481
108.31
108.471
108.536
108.306
108.54
108.508
108.59
108.631
108.576
108.594
108.514
108.541
108.501
108.244
108.667
108.56
108.492
108.68
108.706
108.829
108.675
108.664
108.744
108.67
108.622
108.556
108.582
108.54
108.668
108.619
108.607
108.624
108.274
108.585
108.579
108.559
108.49
108.571
108.738
108.602
108.575
108.708
108.595
108.553
108.547
108.588
108.614
108.622
108.606
108.618
108.612
108.613
108.602
108.658
108.724
108.599
108.603
108.59
108.615
108.626
108.612
108.582
108.582
108.607
108.577
108.509
108.551
108.556
108.577
108.613
108.551
108.61
108.631
108.524
108.451
108.549
108.416
108.442
108.475
108.661
108.324
108.619
108.382
108.373
108.375
108.464
108.53
108.44
108.495
108.608
108.479
108.533
108.502
108.812
108.325
108.656
108.799
108.516
108.548
108.671
108.618
108.7
108.845
108.586
108.561
108.55
108.525
108.471
108.589
108.538
108.587
108.623
108.605
108.607
108.433
108.611
108.52
108.621
108.524
108.683
108.847
108.638
108.812
108.658
108.615
108.524
108.741
108.765
108.777
108.871
108.622
108.617
108.762
108.751
108.478
108.438
108.678
108.615
108.409
108.608
108.754
108.701
108.703
108.521
108.625
108.838
108.756
108.772
108.709
108.681
108.806
108.838
108.642
108.632
108.6
108.784
108.738
108.616
108.687
108.879
108.662
108.734
108.722
108.709
108.723
108.434
108.561
108.499
108.47
108.554
108.379
108.55
108.523
108.491
108.809
108.893
108.754
108.452
108.565
108.531
108.759
108.68
108.684
108.713
108.687
108.722
108.716
108.57
109.039
108.621
108.686
108.74
108.683
108.624
108.563
108.557
108.681
108.717
108.693
108.656
108.774
109.032
108.696
108.767
108.793
108.786
108.715
108.407
108.711
108.543
108.695
108.673
108.417
108.614
108.459
108.785
108.642
108.524
108.38
108.546
108.571
108.755
108.321
108.511
108.589
108.627
108.664
108.738
108.516
108.687
108.571
108.599
108.688
108.744
108.403
108.576
108.588
108.598
108.592
108.632
108.488
108.811
108.485
108.597
108.47
108.889
108.456
108.417
108.491
108.529
108.491
108.422
108.516
108.438
108.48
108.451
108.775
108.605
108.834
108.475
108.443
108.574
108.572
108.57
108.58
108.573
108.571
108.601
108.574
108.519
108.51
108.584
108.569
108.633
108.645
108.663
108.624
108.621
108.635
108.544
108.765
108.597
108.663
108.554
108.771
108.619
108.62
108.659
108.732
108.777
108.63
108.626
108.49
108.535
108.489
108.484
108.509
108.515
108.656
108.579
108.473
108.534
108.674
108.85
108.802
108.507
108.482
108.46
108.277
108.077
108.481
108.445
108.486
108.72
108.502
108.675
108.469
108.262
108.525
108.506
108.477
108.502
108.483
108.6
108.636
108.456
108.649
108.546
108.522
108.567
108.567
108.473
108.443
108.497
108.488
108.527
108.522
108.428
108.515
108.499
108.504
108.514
108.51
108.38
108.54
108.807
108.629
108.771
108.598
108.666
108.708
108.639
108.611
108.647
108.539
108.573
108.656
108.527
108.652
108.585
108.807
108.693
108.685
108.789
108.724
108.725
108.739
108.658
108.624
108.724
108.712
108.802
108.575
108.716
108.66
108.56
108.682
108.687
108.619
108.731
108.632
108.542
108.582
108.486
108.043
108.632
108.65
108.82
108.792
108.864
108.346
108.291
108.605
108.618
108.468
107.873
108.536
108.617
108.608
108.658
108.768
108.619
108.676
108.996
108.878
108.853
108.611
108.758
108.685
108.672
108.634
108.707
108.544
108.739
108.61
108.639
108.647
108.687
108.514
108.479
108.534
108.819
108.427
108.269
108.627
108.566
108.483
108.63
108.613
108.687
108.618
108.431
108.748
108.635
108.547
108.597
108.638
108.581
108.704
108.491
108.455
108.486
108.645
108.513
108.406
108.843
108.767
108.746
108.612
108.715
108.554
108.561
108.667
108.555
108.781
108.573
108.648
108.687
108.774
108.552
108.534
108.703
108.539
108.444
108.368
108.639
108.687
108.691
108.55
108.549
108.229
108.605
108.597
108.566
108.465
108.631
108.597
108.539
108.709
108.587
108.507
108.59
108.579
108.535
108.527
108.525
108.59
108.524
108.527
108.52
108.535
108.532
108.597
108.6
108.609
108.604
108.57
108.649
108.508
108.569
108.575
108.494
108.55
108.54
108.45
108.593
108.511
108.536
108.557
108.757
108.59
108.674
108.437
108.498
108.932
108.614
108.578
108.761
108.565
108.392
108.644
108.596
108.532
108.498
108.457
108.451
108.543
108.582
108.53
108.526
108.568
108.493
108.466
108.546
108.497
108.595
108.612
108.539
108.618
108.595
108.452
108.618
108.537
108.547
108.629
108.555
108.499
108.549
108.485
108.438
108.554
108.431
108.455
108.332
108.382
108.581
108.65
108.574
108.346
108.444
108.365
108.384
108.604
108.539
108.63
108.509
108.519
108.391
108.487
108.514
108.512
108.45
108.476
108.522
108.509
108.516
108.52
108.522
108.533
108.462
108.548
108.528
108.527
108.511
108.547
108.539
108.618
108.51
108.532
108.578
108.563
108.499
108.519
108.567
108.562
108.576
108.575
108.589
108.565
108.53
108.597
108.57
108.573
108.573
108.698
108.571
108.556
108.565
108.571
108.553
108.534
108.657
108.811
108.766
108.567
108.437
108.597
108.567
108.742
108.549
108.567
108.569
108.557
108.574
108.6
108.587
108.498
108.5
108.585
108.573
108.54
108.58
108.567
108.561
108.547
108.507
108.551
108.553
108.585
108.592
108.546
108.509
108.579
108.539
108.541
108.552
108.567
108.463
108.555
108.502
108.565
108.559
108.582
108.593
108.524
108.599
108.599
108.619
108.56
108.587
108.62
108.56
108.595
108.6
108.622
108.577
108.557
108.557
108.593
108.548
108.533
108.62
108.442
108.555
108.449
108.62
108.537
108.556
108.706
108.562
108.502
108.627
108.51
108.641
108.758
108.471
108.744
108.502
108.555
108.569
108.653
108.769
108.589
108.733
108.504
108.589
108.583
108.571
108.595
108.594
108.562
108.551
108.588
108.612
108.66
108.563
108.543
108.515
108.422
108.428
108.504
108.54
108.58
108.589
108.491
108.551
108.583
108.567
108.524
108.537
108.529
108.547
108.517
108.559
108.522
108.437
108.532
108.432
108.533
108.563
108.485
108.546
108.573
108.52
108.559
108.517
108.505
108.482
108.415
108.406
108.497
108.501
108.544
108.51
108.539
108.492
108.482
108.505
108.556
108.468
108.541
108.543
108.515
108.539
108.478
108.406
108.401
108.474
108.494
108.499
108.538
108.482
108.543
108.526
108.556
108.542
108.527
108.545
108.619
108.466
108.698
108.456
108.554
108.602
108.54
108.573
108.558
108.562
108.55
108.565
108.58
108.54
108.545
108.481
108.571
108.561
108.568
108.559
108.549
108.54
108.449
108.681
108.579
108.454
108.593
108.523
108.535
108.537
108.552
108.53
108.563
108.579
108.563
108.553
108.564
108.581
108.547
108.584
108.556
108.535
108.547
108.542
108.549
108.539
108.492
108.522
108.516
108.526
108.516
108.523
108.559
108.552
108.534
108.517
108.503
108.508
108.489
108.504
108.444
108.661
108.579
108.588
108.454
108.518
108.521
108.525
108.537
108.51
108.55
108.535
108.574
108.551
108.57
108.515
108.514
108.552
108.535
108.51
108.526
108.529
108.537
108.522
108.497
108.691
108.517
108.525
108.687
108.5
108.514
108.548
108.686
108.519
108.652
108.513
108.511
108.586
108.715
108.701
108.608
108.702
108.562
108.676
108.597
108.709
108.757
108.612
108.699
108.573
108.68
108.599
108.609
108.608
108.607
108.608
108.61
108.654
108.588
108.626
108.694
108.612
108.646
108.612
108.677
108.542
108.701
108.688
108.6
108.68
108.55
108.536
108.554
108.563
108.675
108.609
108.549
108.685
108.535
108.564
108.706
108.605
108.616
108.567
108.696
108.546
108.396
108.499
108.482
108.57
108.393
108.499
108.481
108.412
108.743
108.553
108.442
108.777
108.463
108.472
108.415
108.471
108.787
108.574
108.787
108.423
108.477
108.395
108.546
108.55
108.433
108.406
108.552
108.473
108.5
108.634
108.534
108.616
108.543
108.637
108.544
108.548
108.667
108.631
108.327
108.652
108.53
108.521
108.582
108.508
108.641
108.649
108.66
108.548
108.544
108.542
108.608
108.652
108.353
108.531
108.654
108.529
108.363
108.506
108.841
108.611
108.912
108.66
108.826
108.58
108.641
108.521
108.643
108.583
108.799
108.747
108.352
108.595
108.528
108.648
108.544
108.426
108.888
108.756
108.512
108.364
108.522
108.299
108.291
108.521
108.52
108.475
107.554
108.435
108.686
108.88
108.724
107.702
108.063
108.346
108.462
108.52
108.45
108.349
108.241
108.479
108.634
108.889
108.731
108.35
106.635
108.247
108.154
108.326
108.496
108.265
108.791
108.655
107.999
108.939
108.633
108.867
108.948
108.976
108.542
108.663
108.938
108.965
108.233
108.702
108.548
108.348
108.627
108.704
108.698
108.73
108.673
108.735
108.712
108.738
108.755
108.655
108.773
108.696
108.692
108.586
108.702
108.644
108.728
108.708
108.725
108.341
108.723
108.639
108.73
108.491
108.616
108.638
108.546
108.635
108.485
108.532
108.629
108.584
108.596
108.582
108.593
108.552
108.573
108.598
108.569
108.544
108.602
108.56
108.606
108.561
108.443
108.508
108.494
108.517
108.414
108.461
108.484
108.439
108.823
108.568
108.504
108.451
108.791
108.476
108.47
108.532
108.721
108.568
108.479
108.776
108.463
108.491
108.52