/*--------------------------------*- C++ -*----------------------------------*\
  =========                 |
  \\      /  F ield         | OpenFOAM: The Open Source CFD Toolbox
   \\    /   O peration     | Website:  https://openfoam.org
    \\  /    A nd           | Version:  10
     \\/     M anipulation  |
\*---------------------------------------------------------------------------*/
FoamFile
{
    format      ascii;
    class       volVectorField;
    location    "0.05";
    object      U;
}
// * * * * * * * * * * * * * * * * * * * * * * * * * * * * * * * * * * * * * //

dimensions      [0 1 -1 0 0 0 0];

internalField   nonuniform List<vector> 
115093
(
(0.020072 -0.00293837 0.015546)
(0.0416729 -0.00139973 -0.0210398)
(-0.0161233 -0.00381016 0.0276763)
(0.08097 0.0104631 0.000991726)
(-0.0641953 0.000520628 -0.00597822)
(0.135815 0.0131655 0.00108791)
(-0.149657 0.0129685 -0.0157301)
(0.234609 0.00767137 -0.0338168)
(0.0117594 -0.000882853 -0.0156031)
(0.0402149 0.00633393 0.0285353)
(0.00429767 -0.0131692 -0.00746226)
(0.0724022 0.018962 0.00929333)
(-0.0533389 -0.00382445 -0.0105255)
(0.138147 0.0158106 -0.00597027)
(-0.147645 0.0144582 0.00251367)
(0.237157 0.00505327 -0.0733277)
(0.0277032 -0.0075222 -0.00362568)
(0.0294307 -0.00555593 0.000326792)
(-0.00334963 0.00112231 0.0027041)
(0.0902775 0.0130469 -0.00244688)
(-0.0672805 0.00887692 -0.00718414)
(0.153955 0.00845692 -0.00809872)
(-0.160032 0.0238346 0.0038393)
(0.252907 -0.00302338 -0.0754866)
(-0.0107136 -0.00966382 -0.00112732)
(0.0487541 0.0115638 0.00172153)
(0.0228864 -0.0348374 -0.00824022)
(0.0801634 0.034223 0.00253518)
(-0.0578135 -0.00500231 -0.0138872)
(0.15306 0.0212462 -0.0035896)
(-0.159319 0.0139683 -0.00409145)
(0.256398 0.0190657 -0.0623718)
(0.0189725 -0.034938 0.0020031)
(0.119774 0.0367044 -0.0117034)
(-0.0802199 0.000392819 0.00165387)
(0.172797 0.0156117 -0.0436491)
(-0.161769 0.0275031 0.0409025)
(0.269486 0.0178851 -0.0815944)
(0.01813 -0.00312352 -0.0209967)
(0.0566578 0.0140304 0.0349162)
(0.0157375 0.0137983 -0.0196293)
(0.0328803 -0.00613194 0.0189921)
(-0.0575537 -0.0154744 -0.0167868)
(0.118278 0.0540631 0.0288484)
(-0.174058 -0.0329501 -0.0339499)
(0.30375 0.000660955 0.0188487)
(0.0578504 -0.0265767 0.0363535)
(0.0532128 0.0318288 -0.0352108)
(-0.0334279 -0.0301891 0.0118882)
(0.0749327 0.00622411 0.00312179)
(-0.0797803 0.00296373 -0.0136049)
(0.151402 0.000451416 0.0294558)
(-0.21373 0.0358428 -0.0140943)
(0.323 -0.0377175 0.0116108)
(0.0363349 0.0163152 0.00740447)
(0.0536917 -0.0264393 0.0178943)
(-0.00996108 0.00300809 -0.0305609)
(0.065928 0.000774959 0.0277115)
(-0.0634951 0.00258655 -0.0218747)
(0.150387 0.0190663 0.029668)
(-0.211737 0.00476272 -0.00764846)
(0.321833 0.0312635 -0.0342298)
(0.0657766 -0.0129316 0.0239788)
(0.029482 0.0138836 -0.141468)
(-0.0063221 0.00346068 0.0551811)
(0.074399 0.00046755 0.00473844)
(-0.0613119 0.0195029 8.16157e-05)
(0.153633 -0.024908 0.0135512)
(-0.20203 0.0613586 0.00144013)
(0.338302 0.0119573 -0.0637215)
(0.0427955 -0.0027857 0.00301509)
(0.0814014 -0.00179546 0.0188955)
(-0.0325097 0.0110325 -0.17885)
(0.0820038 -0.000695201 0.111836)
(-0.089307 0.0194854 -0.0346127)
(0.193213 -0.00565766 0.0237816)
(-0.174002 0.0651565 -0.0187206)
(0.302314 0.00733836 -0.0309785)
(0.0558821 -0.00582357 -0.00178693)
(0.0755963 0.00413823 0.0271966)
(0.0268378 -0.0252675 -0.0434694)
(0.0427779 0.0392641 0.0780187)
(0.00912035 -0.0342077 -0.116643)
(0.0317916 0.0363951 0.191493)
(0.00713856 -0.0601678 -0.0583872)
(0.0830624 0.0290377 -0.0940999)
(-0.132256 -0.0159452 0.00290191)
(0.237465 0.0175415 0.04581)
(-0.387643 0.00144131 -0.041046)
(0.544855 0.0197846 0.0611312)
(0.0278281 0.00476287 0.0483736)
(0.0426796 -0.0170359 -0.0862652)
(-0.0361115 -0.0248452 0.129331)
(0.0974801 -0.00628862 0.0759735)
(-0.0498778 -0.0145707 -0.0953507)
(0.148898 0.00594588 0.135692)
(-0.174207 0.0353849 -0.236219)
(0.256319 -0.0126367 0.129841)
(-0.390517 0.0611878 -0.0821041)
(0.529235 0.00154673 0.0869955)
(0.0208574 0.0289654 -0.0805294)
(0.0110338 -0.0151918 0.155414)
(0.0572041 -0.0491236 -0.00711455)
(0.0516527 0.023214 0.044327)
(-0.0239747 -0.0105666 -0.0926253)
(0.138239 0.0146213 0.144613)
(-0.131284 0.0256806 -0.172824)
(0.253356 -0.0486364 -0.0684931)
(-0.374917 0.0964218 0.0437767)
(0.508844 0.00507322 -0.0303639)
(0.0726555 -0.0355153 -0.0187047)
(-0.00681543 -0.135197 0.0477831)
(0.0131549 0.0373689 -0.0192614)
(0.100566 0.0126109 0.0437493)
(-0.062452 0.0232965 -0.0872325)
(0.168401 -0.00561516 0.145893)
(-0.190679 0.0553093 -0.162263)
(0.29995 -0.0787854 -0.0921066)
(-0.338589 0.117146 0.05236)
(0.470432 -0.0285145 -0.00897607)
(0.0261989 0.468628 0.452191)
(-0.399211 0.0726305 0.040844)
(0.135687 -0.190714 -0.0497244)
(0.0274715 0.112909 0.0497782)
(-0.0466041 -0.0131379 -0.0918879)
(0.181864 0.0278471 0.14629)
(-0.253944 0.00371624 -0.210184)
(0.339734 0.0223158 0.0269071)
(-0.319393 0.0453707 0.0164014)
(0.453859 0.0119231 -0.0495005)
(0.0134709 0.0589804 0.527092)
(-0.0791613 0.722184 0.485311)
(-0.391585 -0.219477 0.0341172)
(0.247123 0.118451 0.0153093)
(-0.137781 -0.00593736 -0.0493218)
(0.184166 -0.0272236 -0.0702484)
(-0.219833 0.0726813 0.024323)
(0.357087 0.002434 -0.0279843)
(-0.344904 0.058363 0.0353555)
(0.470008 0.0119568 -0.046205)
(0.0551223 0.0415076 0.511032)
(0.02392 0.154792 0.586432)
(-0.365224 0.00328322 0.0133415)
(0.240824 0.0284431 0.0328511)
(0.0310146 0.00437187 0.0158788)
(0.0463478 0.00341387 0.00109545)
(-0.0312162 -0.00242322 0.0106223)
(0.119673 0.0498848 0.0423124)
(-0.124637 -0.0481865 -0.102759)
(0.110601 0.0917542 0.24347)
(-0.0991094 -0.139448 -0.192123)
(0.272078 0.127959 0.299949)
(-0.393823 -0.118675 -0.293184)
(0.505896 0.15253 0.0473473)
(0.015738 -0.0595162 -0.0190077)
(0.042546 0.100806 0.0291763)
(0.0236058 -0.144 -0.00963893)
(0.0395383 0.235823 -0.0198435)
(-0.0155977 -0.10158 0.0631954)
(0.0880481 -0.0954305 0.150516)
(-0.125309 0.00499632 -0.218782)
(0.287192 0.0191061 0.319648)
(-0.274605 -0.0291317 -0.381827)
(0.430856 0.115183 -0.0098816)
(0.0981122 0.053188 0.053096)
(-0.0410704 -0.0976547 -0.0359439)
(0.0860124 0.144255 0.118089)
(-0.241524 -0.0609055 -0.0281159)
(0.288886 0.427071 0.449104)
(-0.222545 0.158976 0.13563)
(-0.0395273 -0.189915 -0.246887)
(0.231702 0.0643632 0.321544)
(-0.24586 -0.017581 -0.418895)
(0.428713 0.0237434 0.0271264)
(-0.0416452 -0.0413566 -0.0857546)
(0.118496 0.0923822 0.153713)
(-0.310334 -0.00512948 -0.053859)
(0.260002 0.352653 0.481663)
(0.0435654 -0.0614678 0.468125)
(-0.140808 0.772704 0.55801)
(-0.497159 -0.110681 -0.175006)
(0.428351 -0.111813 0.289235)
(-0.312005 0.120699 -0.36304)
(0.451672 -0.0995796 -0.0120154)
(0.196894 -0.0386238 0.167523)
(-0.32181 0.0358916 0.024116)
(0.292514 0.370823 0.393682)
(0.042261 0.0447521 0.583719)
(0.0532362 0.0627158 0.458077)
(0.0025413 0.0575177 0.657479)
(0.152271 0.60463 0.204416)
(-0.186741 -0.240359 0.296338)
(-0.300018 0.191458 -0.263651)
(0.435453 -0.117074 0.0305639)
(0.0707768 0.48439 0.444895)
(-0.00624938 0.355947 0.427099)
(0.0341076 0.0531938 0.563064)
(0.0294077 0.0838789 0.56811)
(0.0779733 0.0432883 0.478813)
(0.0537844 0.0401041 0.630493)
(0.307323 0.00653413 0.284823)
(-0.240031 0.133724 0.0076536)
(-0.219637 0.00270066 -0.042606)
(0.39557 -0.00726134 0.0154352)
(0.0317487 0.316303 0.21493)
(-0.0490202 0.237788 0.781163)
(0.0465597 0.0658827 0.487961)
(0.0417827 0.0740442 0.607433)
(0.126447 0.017658 0.424596)
(0.0444678 -0.0928984 0.639583)
(-0.593494 0.181204 -0.14496)
(0.520117 0.0809531 -0.115132)
(-0.39379 0.0274449 0.0788668)
(0.500904 -0.0334425 -0.0536526)
(0.00803809 0.0957986 0.556461)
(-0.00991212 0.118938 0.279326)
(-0.00752987 0.0604178 0.770617)
(0.115787 0.0974445 0.484995)
(0.245149 -0.118389 0.473137)
(-0.188632 -0.117291 0.101606)
(-0.180533 0.256011 -0.223596)
(0.311 -0.0437001 0.0737471)
(-0.317039 0.0761733 -0.027753)
(0.458305 0.00123695 -0.00885909)
(0.054943 0.0541711 0.623455)
(-0.011338 0.0913038 0.493045)
(-0.0117201 0.0251091 0.737457)
(0.0939414 0.0586567 0.55699)
(-0.365529 -0.125245 -0.0404242)
(0.269381 0.176502 -0.128765)
(0.105204 0.294806 0.0312025)
(-0.117545 -0.254153 -0.0641114)
(0.282742 0.374402 0.0592359)
(-0.420489 -0.381167 -0.0530514)
(0.0465944 -0.0357934 0.0142699)
(0.0327368 0.0481567 -0.0118294)
(0.0427226 -0.0303729 0.0577776)
(-0.0653994 0.00994871 -0.111406)
(0.151024 0.047392 0.119878)
(-0.335632 0.0761312 0.0581936)
(0.354234 0.233705 0.2521)
(-0.220779 0.763999 0.711991)
(-0.736365 -0.334033 -0.291182)
(0.796846 0.0446474 0.0154162)
(0.0135926 0.0510667 -0.0231288)
(0.0622774 -0.0509268 0.0672191)
(-0.0810105 0.132502 -0.116832)
(0.181244 0.0756651 0.163393)
(-0.354352 -0.0998543 -0.098619)
(0.126659 0.42897 0.515556)
(0.0927369 0.1557 0.302054)
(-0.00908555 0.218261 0.754754)
(0.412203 0.393871 0.0600689)
(0.0139477 -0.00227442 0.496843)
(0.0539109 -0.0916249 -0.0269883)
(0.0916892 0.164478 0.0826553)
(-0.303454 -0.0741345 -0.0255693)
(0.207976 0.531414 0.400122)
(-0.00785598 0.380846 0.0272031)
(-0.133937 0.177704 0.81793)
(0.0497051 0.0908602 0.24347)
(0.0411071 0.076019 0.829284)
(0.519922 0.106711 0.0859928)
(0.120436 0.017882 0.561372)
(0.0598335 0.14607 0.0649577)
(-0.210868 0.0345718 0.0475954)
(0.200452 0.354419 0.39111)
(0.00867489 0.231694 0.223085)
(0.0891642 0.181044 0.559778)
(-0.135115 0.0888389 0.198678)
(-0.0211161 -0.0299923 0.552544)
(0.154565 -0.108697 0.696476)
(0.556949 -0.0534631 0.0967864)
(0.017788 0.0132135 0.481166)
(-0.11254 -0.028059 -0.00535155)
(0.116681 0.40184 0.418758)
(0.038632 0.154443 0.233137)
(0.0711382 0.108375 0.662126)
(0.0423629 0.068197 0.61434)
(0.0105421 0.0343321 0.64016)
(0.00773966 -0.0587806 0.0657209)
(-0.0188267 -0.230215 0.916983)
(-0.682455 0.350689 -0.413754)
(0.768939 0.0305719 0.0236737)
(0.0194337 0.397124 0.299264)
(0.0196668 0.226925 0.335452)
(0.0494141 0.0919835 0.650435)
(0.0328657 0.0537678 0.642576)
(0.0635455 0.0179313 0.594468)
(0.0856358 -0.00158288 0.639797)
(0.178532 0.00366793 0.195159)
(-0.0322332 -0.427251 0.384387)
(-0.410633 0.458947 -0.364088)
(0.527735 -0.113412 0.144651)
(0.127655 0.46114 0.333426)
(0.0354835 0.334133 0.588879)
(0.00346953 0.0167498 0.596541)
(0.083365 0.0391014 0.588146)
(0.119003 -0.00669248 0.571671)
(0.062701 -0.0446829 0.26691)
(0.258067 -0.0857694 0.535786)
(-0.134871 0.0814976 -0.0879809)
(-0.269265 0.0607091 0.0260981)
(0.440223 -0.0142227 -0.0217861)
(-0.0917985 0.379022 0.34693)
(-0.0088504 0.321281 0.681072)
(-0.15669 0.484437 0.766771)
(0.265317 0.0504238 0.532935)
(0.191184 -0.0424441 0.201629)
(0.0314576 -0.156968 0.768608)
(-0.537472 0.248428 -0.231252)
(0.534871 0.0506057 0.122448)
(-0.427597 0.0453179 -0.0770211)
(0.542022 0.000497454 0.0234097)
(0.0609733 0.0446738 0.463328)
(-0.0835163 0.0542422 0.354977)
(-0.0164862 0.0110048 0.817528)
(0.237045 0.0236294 0.159659)
(0.322964 -0.132477 0.616743)
(-0.117808 -0.0909945 -0.152797)
(0.150225 0.228956 0.00353978)
(-0.131545 -0.318116 -0.022471)
(0.278643 0.426933 0.0235477)
(-0.282079 -0.48557 -0.0202161)
(0.0323168 -0.00844073 -0.0241201)
(0.0915642 0.0508392 0.0278111)
(-0.131598 -0.0935736 0.00366786)
(0.17325 0.206567 -0.100519)
(-0.353693 -0.133917 0.179322)
(0.114152 0.566054 0.422967)
(0.118938 0.208966 0.131608)
(-0.0408844 0.831729 0.195114)
(0.477542 -0.0400921 0.41775)
(-0.0161833 0.577954 -0.0643213)
(0.0468612 -0.0990968 0.022723)
(-0.0558991 0.204393 -0.00491486)
(0.166211 -0.0381012 -0.0757543)
(-0.276408 0.0772303 0.167111)
(0.219528 0.28168 0.421125)
(-0.10277 0.278977 0.207597)
(-0.113142 0.500087 0.446602)
(-0.274241 0.695334 0.619987)
(0.368332 -0.0147903 -0.00939851)
(-0.468636 1.00621 0.951946)
(-0.821425 -0.406795 -0.415299)
(0.178097 0.141457 -0.145627)
(-0.3778 -0.0451695 0.221072)
(0.270739 0.4292 0.408984)
(-0.0810788 0.407491 0.0730416)
(-0.0299927 0.114246 0.0357225)
(-0.166613 0.44548 0.551555)
(-0.0867921 0.224931 0.752252)
(-0.0893291 0.0825762 0.855961)
(-0.0425943 0.0744203 0.346578)
(-0.364953 0.20863 1.20597)
(-0.838134 -0.000575772 -0.276195)
(-0.361157 0.0677066 0.192635)
(0.232011 0.301084 0.499143)
(-0.0463452 0.18535 0.123588)
(-0.157207 0.606829 0.299318)
(-0.165368 0.745995 0.358928)
(-0.218942 0.332774 0.803001)
(-0.0746849 -0.0132238 0.776817)
(0.00985488 -0.226106 0.827773)
(0.384934 0.0877821 0.0121001)
(-0.362903 -0.231216 1.13345)
(-0.815186 0.419285 -0.420852)
(0.270638 0.385057 0.471757)
(0.00158046 0.153376 0.176094)
(-0.204587 0.576837 0.323785)
(-0.139022 0.367231 0.371349)
(-0.093604 0.16671 0.691126)
(-0.165427 0.230165 0.606867)
(-5.30621e-05 -0.130362 0.717589)
(-0.13353 -0.0643494 0.268882)
(0.519324 0.0338 0.339778)
(0.0303606 -0.464774 -0.061985)
(-0.568436 0.374986 0.0822334)
(0.0108939 0.136738 0.15624)
(-0.104676 0.529886 0.306777)
(-0.0947745 0.381576 0.410306)
(-0.102485 0.226981 0.670582)
(-0.0650344 -0.0717742 0.602113)
(-0.0346917 -0.19389 0.526791)
(0.0114805 -0.320419 0.300928)
(-0.0142613 -0.247891 0.894283)
(-0.592687 0.444961 -0.283033)
(0.676534 -0.0566871 0.16415)
(-0.648481 0.0681494 -0.103621)
(-0.0493151 0.608365 0.360584)
(-0.0879852 0.309216 0.370767)
(-0.0739023 0.209672 0.615412)
(-0.0187116 -0.0316188 0.531073)
(-0.00985013 -0.273266 0.448019)
(-0.133039 -0.270818 0.708712)
(0.540343 -0.00146545 0.192465)
(-0.00230659 -0.276204 0.0143801)
(-0.373551 0.324466 0.00119345)
(0.491116 -0.16325 -0.0232525)
(-0.499112 0.173605 0.0446281)
(0.134571 0.30054 0.179285)
(0.0600173 0.306332 0.319559)
(0.0942377 0.112311 0.312551)
(0.0151759 -0.21148 0.49487)
(0.0211827 -0.326303 0.332368)
(0.173059 -0.236944 0.24315)
(-0.440411 0.271765 0.00870631)
(0.455005 -0.0172996 0.0523938)
(-0.419862 0.0845836 -0.032331)
(0.540553 -0.0152825 0.0219813)
(-0.524547 0.0658116 -0.00064883)
(0.111317 -0.0554536 0.133442)
(0.0628524 -0.161747 0.620285)
(0.532861 -0.0831016 0.213019)
(-0.0457394 -0.103865 0.00442239)
(0.140286 0.191456 -0.0139661)
(-0.124399 -0.313454 0.0273471)
(0.276261 0.435472 -0.0303485)
(-0.287761 -0.491633 0.0448798)
(0.0619215 -0.014117 0.0235692)
(0.062348 0.0409095 -0.0510536)
(-0.0982798 -0.0839573 0.0371428)
(0.137515 0.158243 -0.0268238)
(-0.386478 -0.177035 0.0314027)
(0.294312 0.623994 0.107396)
(0.106896 0.206696 0.0249013)
(-0.0294353 0.859079 0.0334081)
(0.65613 0.0165014 0.0458211)
(0.038324 0.601598 0.107742)
(0.00689458 -0.0850625 -0.0305974)
(-0.0286704 0.19045 0.0295708)
(0.112455 -0.0254742 -0.00715487)
(-0.294799 0.0826567 0.027814)
(0.44656 0.394512 0.119078)
(0.00916713 0.428728 0.0739971)
(0.113198 0.789222 0.098634)
(-0.133581 0.934462 0.0341184)
(-0.0458569 0.413123 0.165884)
(-0.455744 1.21095 0.0112539)
(-0.831528 -0.335912 0.431402)
(0.221967 0.122644 0.113104)
(-0.393419 -0.0166176 -0.209863)
(0.497499 0.438638 0.0253628)
(-0.149853 0.48735 0.00982926)
(0.0283094 0.275498 0.0214718)
(-0.159731 0.757222 0.0897646)
(-0.181616 0.574742 0.250722)
(0.381365 -0.0441863 0.123411)
(0.0149663 0.216409 0.0279255)
(-0.0441438 0.382046 0.139485)
(-0.803173 -0.00323826 -0.0732481)
(-0.401215 0.0431365 -0.169667)
(0.476864 0.334678 0.0263273)
(-0.113238 0.25169 0.0698867)
(-0.189642 0.647794 -0.130833)
(-0.34595 0.689703 -0.0475372)
(-0.0857289 0.582241 0.0922717)
(0.971351 -0.168262 -0.109118)
(0.122125 -0.233719 0.124833)
(0.00730009 -0.292495 0.167451)
(-0.311706 -0.360673 0.0372069)
(-0.824303 0.351877 0.433251)
(0.512137 0.422025 0.0180576)
(-0.0448664 0.224836 0.069036)
(-0.256967 0.647575 0.0368532)
(-0.0108999 0.463201 0.0322539)
(0.111631 0.384593 -0.10325)
(1.41043 -0.141126 -0.148948)
(1.04016 -0.267939 -0.00927477)
(-0.131817 -0.490711 0.685057)
(0.800016 -0.105112 0.0809999)
(0.0977943 -0.472536 0.111586)
(-0.582746 0.35884 -0.103375)
(0.0628434 0.252032 0.0377484)
(-0.10897 0.57636 -0.105069)
(-0.157745 0.365383 -0.0536962)
(0.188796 0.212925 -0.0202546)
(1.24772 0.000591493 0.178406)
(1.16206 -0.410296 -0.235701)
(-0.0396331 -0.408012 -0.104216)
(0.159717 -0.283325 -0.0109999)
(-0.593373 0.488309 0.302349)
(0.700422 -0.085953 -0.167653)
(-0.667913 0.046963 0.141246)
(0.118765 0.641583 0.0759842)
(0.0523179 0.675521 0.11353)
(0.126601 0.410132 0.020524)
(0.232384 0.264294 -0.0347287)
(0.360562 -0.051083 -0.0055044)
(-0.0117418 -0.293556 -0.294039)
(0.550694 -0.0933568 -0.119184)
(-0.0217658 -0.259655 0.111786)
(-0.342636 0.311022 -0.0520099)
(0.47328 -0.159628 0.0164967)
(-0.482005 0.167688 -0.014498)
(0.652297 -0.0936909 0.0204977)
(0.702077 0.0843005 0.0573324)
(0.477646 0.0855722 0.0386455)
(0.47066 -0.197495 -0.0546637)
(-0.0524771 -0.443443 -0.100711)
(0.316581 -0.300569 -0.197862)
(-0.45199 0.261791 0.233502)
(0.502654 0.00909196 -0.134483)
(-0.461239 0.0567835 0.102093)
(0.574486 -0.0019068 -0.0668853)
(-0.544084 0.0446333 0.0598123)
(0.626456 -0.252006 -0.130992)
(0.245546 -0.173647 -0.133501)
(0.587321 -0.138484 -0.15822)
(-0.0637065 -0.104885 0.0920981)
(0.156408 0.215331 -0.0217941)
(-0.145394 -0.298796 0.0692714)
(0.307527 0.417511 -0.0486166)
(-0.421177 -0.395617 0.0499211)
(-0.0169657 -0.0375867 -0.00925669)
(0.105976 0.0808645 0.00118253)
(-0.11005 -0.123983 -0.0395702)
(0.157386 0.23147 0.0779701)
(-0.426541 -0.145261 -0.063826)
(0.392878 0.555847 -0.11473)
(0.256795 0.16109 -0.115136)
(-0.196514 0.908185 -0.177353)
(-0.678353 -0.394571 0.295376)
(0.703392 0.158945 -0.0810778)
(0.0883233 0.000946253 0.0228235)
(-0.0538025 0.000481158 -0.0709934)
(0.142473 0.0659826 0.127937)
(-0.290664 0.141212 -0.208244)
(0.535849 0.234563 -0.0394272)
(-0.103412 0.332524 -0.014675)
(0.204837 0.621972 -0.309948)
(-0.0503596 0.620733 -0.315729)
(0.449542 0.401094 -0.0047579)
(0.150773 0.389604 -0.425619)
(-0.663156 -0.380838 0.330049)
(-0.0353778 -0.0341956 0.0212166)
(0.148209 0.107747 -0.0815235)
(-0.311344 0.0225594 0.0175056)
(0.389489 0.362795 -0.0540657)
(-0.0807525 0.136561 -0.00230451)
(-0.268043 0.583983 -0.421014)
(-0.144269 0.298201 -0.445111)
(-0.12528 0.0374206 -0.455208)
(-0.149597 0.0172247 -0.362673)
(-0.501904 1.06033 -0.581146)
(-0.818091 0.00233826 0.37916)
(0.177623 0.0964445 -0.0696009)
(-0.271616 0.0233672 -0.0504971)
(0.410587 0.365355 -0.0401456)
(-0.149353 0.256356 -0.0802412)
(-0.179357 0.491843 -0.405259)
(-0.124822 0.220459 -0.474924)
(-0.0948025 0.0289541 -0.392085)
(-0.0492073 -0.35634 -0.4058)
(0.58436 0.0628205 -0.057295)
(0.158012 -0.363535 -0.406313)
(-0.663805 0.397421 0.332931)
(-0.29647 -0.0281824 -0.0261239)
(0.422502 0.420806 -0.0768697)
(0.0636859 0.377618 -0.226294)
(-0.0725788 0.687189 -0.383842)
(-0.135969 0.255769 -0.537549)
(-0.119307 -0.0182087 -0.40859)
(-0.159289 -0.308227 -0.3278)
(0.151657 -0.275147 -0.258189)
(-0.616915 0.4151 0.414752)
(0.690983 -0.0968107 -0.0909037)
(-0.631098 0.0376288 0.0278639)
(-0.0249927 0.430593 -0.0711494)
(0.0516637 0.23831 -0.139783)
(-0.170153 0.246637 -0.392301)
(-0.0525526 0.125859 -0.447666)
(-0.0501826 -0.0791502 -0.551717)
(-0.224497 -0.324039 -0.309853)
(0.394296 -0.182623 -0.152945)
(-0.0240312 -0.278668 -0.166019)
(-0.381526 0.352082 0.233456)
(0.52551 -0.150539 -0.130361)
(-0.54662 0.182218 0.1083)
(-0.00378219 0.797819 -0.119105)
(-0.054797 0.804887 -0.169527)
(-0.0482453 0.692841 -0.346981)
(-0.107382 0.192802 -0.456555)
(-0.0791151 -0.00942019 -0.5035)
(-0.145747 -0.286688 -0.279612)
(0.185687 -0.247661 -0.245817)
(-0.437957 0.256456 0.264195)
(0.465096 -0.0440816 0.00321144)
(-0.427023 0.124902 0.0218043)
(0.54868 -0.0579895 -0.0305708)
(-0.521101 0.0844797 0.0203401)
(0.345023 0.0910287 0.0352696)
(0.523012 0.112826 -0.0692906)
(0.0955738 0.254644 -0.193555)
(0.156885 0.0432779 -0.290179)
(-0.0226767 -0.160992 -0.177533)
(0.441722 -0.198785 -0.146145)
(-0.079095 -0.14183 -0.0488812)
(-0.192301 0.250917 0.194576)
(0.342137 -0.10941 -0.111505)
(-0.355722 0.154332 0.0957397)
(0.491838 -0.0441393 -0.0563405)
(-0.494198 0.0974776 0.0520859)
(0.0918849 0.155433 -0.313376)
(-0.0254862 0.0876589 0.0297747)
(-0.201641 0.0116005 -0.0309507)
(0.256009 0.0831428 0.119745)
(0.0510636 -0.00482214 -0.00453872)
(0.0316655 -0.00694059 0.00897869)
(-0.0124714 0.0141135 -0.0337554)
(0.0927838 -0.0403945 0.06844)
(-0.0723093 0.0850162 -0.105372)
(0.141121 0.169719 -0.157382)
(-0.119136 -0.277468 0.281215)
(0.310422 0.371772 -0.355476)
(-0.526468 -0.363639 0.365032)
(0.615155 0.230058 -0.176846)
(-0.0338096 -0.0557553 0.0320346)
(0.0891911 0.0999856 -0.0731649)
(-0.077814 -0.150736 0.118853)
(0.154883 0.224766 -0.220759)
(-0.438508 -0.204065 0.153894)
(0.461763 0.497957 -0.140182)
(0.307414 0.207463 -0.0771549)
(-0.180841 0.844497 -0.255045)
(-0.645587 -0.300901 0.396276)
(0.692241 -0.0223214 -0.159831)
(-0.68913 0.0662351 0.0557879)
(0.134756 0.0288222 -0.0172613)
(-0.0674048 -0.0661098 0.0260867)
(0.107577 0.108081 -0.112484)
(-0.310519 0.0370277 -0.0208944)
(0.594066 0.191933 -0.0215552)
(0.0357484 0.180176 -0.288666)
(0.162133 0.159263 -0.190799)
(-0.0013841 0.0132845 -0.395941)
(0.581217 0.423474 -0.0344828)
(-0.0985482 0.0269749 -0.539424)
(-0.525667 -0.00277795 0.457454)
(-0.102439 -0.0523655 0.0591111)
(0.150271 0.106486 -0.156475)
(-0.334808 -0.00268626 0.0840429)
(0.465942 0.303792 -0.122208)
(0.161269 0.0814904 -0.206712)
(-0.0143379 0.132132 -0.302756)
(0.146244 0.0815378 -0.195227)
(-0.0417534 -0.0533864 -0.321047)
(-0.628118 0.3791 0.393198)
(0.696527 0.0305538 -0.157809)
(-0.692044 -0.0293035 0.0572684)
(0.21694 -0.0111347 -0.0974358)
(-0.334341 0.0376911 0.0210721)
(0.527326 0.355835 -0.105246)
(0.0674847 0.109749 -0.267691)
(0.0710216 0.100401 -0.223382)
(0.0236537 0.0459779 -0.306571)
(0.291373 -0.0496175 -0.158657)
(-0.109993 -0.204871 -0.345482)
(-0.430547 0.272473 0.346553)
(0.542841 -0.136154 -0.161283)
(-0.494763 0.134831 0.147031)
(0.0617926 0.558669 -0.250072)
(-0.00681144 0.34415 -0.209373)
(0.0266927 0.127961 -0.260755)
(0.0181085 0.100098 -0.276444)
(0.111632 0.0380536 -0.213485)
(0.031847 -0.115403 -0.285991)
(-0.435171 0.223931 0.211656)
(0.422825 -0.0627565 -0.0718549)
(-0.470851 0.114603 0.115018)
(0.592118 -0.0182752 -0.0899917)
(-0.580173 0.0426573 0.0690497)
(-0.01931 0.683806 -0.314155)
(0.118103 0.687146 -0.351599)
(-0.0606426 0.341539 -0.116142)
(0.0767672 0.0929465 -0.317494)
(0.107501 0.0903875 -0.225366)
(0.242482 -0.110916 -0.202768)
(-0.152264 -0.0803473 -0.177809)
(-0.222858 0.197791 0.237832)
(0.344956 -0.143584 -0.121487)
(-0.345702 0.175481 0.117038)
(0.478166 -0.0808957 -0.0601023)
(-0.470117 0.110386 0.057579)
(-0.0958534 0.279992 -0.415661)
(-0.0391673 0.301216 -0.439282)
(-0.14013 0.777817 -0.368814)
(0.211215 0.17829 -0.27108)
(0.119343 0.106785 -0.269183)
(-0.257718 -0.0928548 0.188172)
(0.230722 0.10754 -0.0408634)
(-0.258345 0.00213324 0.0869149)
(0.414335 0.0252333 -0.0615187)
(-0.405878 0.0432514 0.0692764)
(0.528692 0.0193432 -0.0462011)
(-0.51502 0.0401139 0.0429342)
(-0.120228 0.233151 -0.350009)
(0.0113585 0.331988 -0.337783)
(0.0999096 0.112195 -0.558465)
(-0.0021077 -0.0215369 0.0123649)
(0.0746066 0.035756 -0.0266273)
(-0.0481967 -0.0409048 0.0337584)
(0.108556 0.0618236 -0.0492124)
(-0.058479 -0.0617595 0.0583141)
(0.0986866 0.0740965 -0.0974382)
(-0.153465 -0.0894326 0.126732)
(0.275489 0.1134 -0.15953)
(-0.379917 -0.105063 0.163492)
(0.0355702 -0.0123381 0.00624866)
(0.0340677 0.017191 0.00520595)
(-0.010765 -0.0198606 -0.00550337)
(0.0941478 0.0425229 0.0455645)
(-0.110118 -0.0727044 -0.0795865)
(0.172425 0.0313231 -0.184622)
(-0.153508 -0.0550422 0.277891)
(0.318172 0.059068 -0.395834)
(-0.430485 -0.0456529 0.372484)
(-0.000291318 -0.00808001 0.0442822)
(0.0678124 0.0192455 -0.0865844)
(-0.0228649 0.000731308 0.146029)
(0.0535053 -0.016126 -0.224939)
(-0.0390511 -0.0283335 0.105454)
(0.13907 0.0113347 -0.188387)
(-0.131261 -0.00258528 0.300687)
(0.268417 0.0166609 -0.427997)
(-0.285895 0.00158231 0.4607)
(0.0482754 -0.0120029 -0.0238467)
(0.0431189 0.0239462 0.0722016)
(-0.04795 -0.0715254 -0.11159)
(0.106298 0.0185289 -0.105572)
(-0.0700819 -0.0232315 0.145985)
(0.167969 0.0242036 -0.18475)
(-0.158629 0.0218195 0.284641)
(0.315991 -0.0164552 -0.377354)
(-0.425581 0.0570866 0.375659)
(0.0152497 0.0171479 0.0854398)
(0.00693624 -0.0109292 -0.172891)
(0.0101636 -0.001176 0.0147235)
(0.110406 -0.0370697 -0.0676357)
(-0.066675 0.043249 0.13697)
(0.176398 -0.015088 -0.208811)
(-0.148046 0.068983 0.255115)
(0.29071 -0.0760422 -0.0507698)
(-0.381813 0.100797 0.0785221)
(0.0525295 -0.0234968 0.0252097)
(0.0888626 0.0432786 -0.0478648)
(-0.0710746 -0.156632 0.0576227)
(0.114553 0.066456 -0.0880486)
(-0.0583098 0.0241968 0.142911)
(0.198053 -0.00765591 -0.202792)
(-0.233266 0.054049 0.275492)
(0.345683 -0.0603704 -0.213689)
(-0.359949 0.112067 0.188016)
(0.0901467 0.462836 -0.172352)
(0.0168292 0.53218 -0.101849)
(-0.436595 0.0426709 0.0257029)
(0.244121 -0.153594 -0.0614216)
(-0.125524 0.133324 0.115617)
(0.200904 -0.0735647 0.0244285)
(-0.225135 0.0984223 0.0258227)
(0.358048 -0.0327311 -0.010867)
(-0.366441 0.0796811 0.0280043)
(0.0761241 0.224157 -0.237862)
(0.0562642 0.135947 -0.229497)
(0.0203468 0.711505 -0.137259)
(-0.2597 -0.198288 -0.119721)
(0.00309647 0.125007 0.168894)
(0.145295 -0.0544275 -0.133591)
(-0.182887 0.0988006 0.14296)
(0.0252388 -0.00820163 0.000786108)
(0.0538095 0.00800117 -0.000806613)
(-0.0362681 -0.00239858 -0.00521146)
(0.11765 0.018739 -0.00339629)
(-0.111434 -0.0116843 0.0082019)
(0.182596 0.0688739 -0.0555566)
(-0.2095 -0.0756976 0.0957429)
(0.311541 0.112006 -0.106189)
(-0.387912 -0.0979705 0.124177)
(-0.00548984 -0.0226343 0.0219739)
(0.0764496 0.0377349 -0.0373212)
(-0.0392744 -0.0364625 0.0466549)
(0.113813 0.0600937 -0.0678897)
(-0.056415 -0.0344162 0.0712692)
(0.112242 0.054436 -0.0786864)
(-0.156591 -0.059126 0.109327)
(0.27732 0.0719085 -0.120426)
(-0.382442 -0.0659823 0.126679)
(0.0504987 -0.00257924 0.00150034)
(0.0400819 0.00399326 -0.00369041)
(-0.0137029 0.00326963 -0.000410707)
(0.119433 0.0417596 -0.0223381)
(-0.116802 -0.050665 0.0549933)
(0.158746 0.0327156 -0.0738888)
(-0.191293 -0.0238006 0.112694)
(0.301562 0.0276189 -0.138334)
(-0.431946 -0.0078049 0.15262)
(-0.00598243 -0.01014 0.024014)
(0.0821474 0.0206285 -0.0462267)
(-0.00129033 0.0188532 0.0422975)
(0.0603558 -0.0175933 -0.0462399)
(-0.0656804 -0.000580486 0.0696238)
(0.138412 -0.00435807 -0.0775227)
(-0.161347 0.0297131 0.105056)
(0.293312 -0.0611827 -0.119718)
(-0.383845 0.0868562 0.128868)
(0.0643643 -0.0216557 0.00242725)
(0.0691673 0.028995 -0.0132569)
(-0.0515682 -0.037354 0.0463071)
(0.100671 0.0193073 -0.0440792)
(-0.104058 -0.011891 0.0677415)
(0.187962 0.00987217 -0.0821591)
(-0.249081 0.0214045 0.10214)
(0.362733 -0.0305586 -0.108288)
(-0.36887 0.0744294 0.123042)
(0.0250662 0.0103938 0.00838665)
(0.0676329 -0.015924 -0.036929)
(-0.011397 0.00352179 0.0247647)
(0.0852126 -0.00796845 -0.0187612)
(-0.0748417 0.0198014 0.0433265)
(0.170923 -0.0394186 -0.0609945)
(-0.203267 0.0723025 0.0826553)
(0.346573 -0.0174323 -0.0520006)
(-0.373846 0.0605606 0.0643347)
(0.0587812 -0.0159665 -0.00162561)
(0.088864 0.00855762 -0.0646706)
(-0.0545695 0.0101977 0.177455)
(0.116205 0.0160557 -0.0989709)
(-0.136058 0.00974151 0.0590239)
(0.240793 -0.0045086 -0.0589719)
(-0.227086 0.0599559 0.078949)
(0.349581 -0.0260319 -0.0536057)
(-0.344397 0.0741666 0.0585041)
(0.0460965 -0.00617537 0.0209061)
(0.0734139 -0.00226113 -0.0495638)
(0.00445093 0.00634249 0.0550926)
(0.0777622 0.0172266 0.10626)
(-0.0426607 -0.0153574 -0.0018647)
(0.120186 0.0233207 -0.00977361)
(-0.116323 -0.0230075 0.00720625)
(0.198596 0.0302223 -0.061027)
(-0.210834 -0.0183506 0.0817418)
(0.315879 0.0356485 -0.105919)
(-0.356074 -0.0160021 0.104513)
(-0.0417694 -0.00324374 0.0408563)
(0.114736 0.00794792 -0.0641288)
(-0.106034 -0.00346233 0.0480499)
(0.192928 0.0155261 -0.0685187)
(-0.202839 -0.000458232 0.0895843)
(0.307868 0.0184486 -0.0916348)
(-0.343852 0.00256221 0.0980573)
(-0.0440987 -0.0205635 -0.00939378)
(0.120167 0.0207945 -0.0325929)
(-0.108553 -0.00670868 0.0447525)
(0.201512 0.015993 -0.0715465)
(-0.207801 0.00996371 0.0979684)
(0.318819 0.00659592 -0.110851)
(-0.353868 0.0239594 0.112376)
(-0.035224 0.00708014 0.0231985)
(0.128462 -0.00613302 -0.0395416)
(-0.110594 0.0178113 0.0492514)
(0.209271 -0.00201471 -0.054448)
(-0.212492 0.0260339 0.0712008)
(0.321332 -0.00633612 -0.0272868)
(-0.34657 0.0362701 0.0357412)
(-0.0504803 -0.0219135 0.0191925)
(0.130947 0.0153855 -0.0360872)
(-0.104266 0.0112679 0.0547941)
(0.209543 0.00285495 -0.0663591)
(-0.212311 0.0290773 0.0890333)
(0.328604 -0.00340577 -0.0726534)
(-0.340782 0.0453115 0.0670975)
(-0.0353876 0.00307599 0.0243374)
(0.161276 -0.0231127 -0.0238116)
(-0.12278 0.0336953 0.0386552)
(0.226718 -0.00905624 -0.0083247)
(-0.218149 0.0396205 0.0233595)
(0.337347 0.00216783 0.00146086)
(-0.34048 0.0422585 0.00576577)
(-0.0299339 -0.105927 -0.611238)
(-0.165064 0.160403 0.537365)
(0.00556615 -0.223245 -0.658591)
(-0.0590326 0.16083 0.550391)
(-0.0578709 -0.0673389 -0.368707)
(0.0522711 0.0158116 0.557518)
(-0.070821 -0.0809838 -0.442987)
(-0.00508145 -0.338964 -0.36745)
(0.0682655 -0.0388864 -0.445984)
(0.140838 -0.425236 -0.148509)
(0.0277867 -0.263195 -0.540589)
(0.0505478 0.0525258 0.511611)
(0.0573001 -0.0848206 -0.412441)
(0.083595 0.440848 0.22054)
(-0.00545087 -0.360354 -0.238315)
(0.594161 0.0612874 0.242794)
(0.0098875 -0.174536 -0.639488)
(-0.137773 0.0243075 0.366627)
(-0.0242425 -0.0261946 -0.613762)
(-0.00881015 0.383325 0.414762)
(0.234347 -0.178077 -0.259354)
(0.586369 0.0701202 0.303349)
(0.0941171 -0.0257807 -0.092307)
(0.0723496 -0.0303637 -0.416384)
(0.0531026 0.0156949 -0.415266)
(0.0604823 -0.0749775 -0.415443)
(0.0546087 -0.0632408 0.521834)
(0.100795 0.0503658 -0.357326)
(0.566745 -0.0180864 0.261325)
(-0.0213901 -0.0244592 -0.595394)
(-0.0580407 -0.112601 0.719532)
(-0.0368728 0.0170562 -0.70974)
(0.558478 0.0313414 0.302321)
(0.0494669 -0.0254581 -0.124303)
(-0.0608401 -0.135643 -0.744407)
(-0.244254 0.118579 0.532599)
(-0.0561054 -0.132703 -0.701335)
(-0.129412 0.577717 0.251322)
(0.689425 -0.125003 -0.0163725)
(1.15902 -0.117396 0.0262838)
(1.44191 -0.29746 -0.130358)
(-0.0894554 -0.0864836 -0.408601)
(-0.0852959 -0.0380384 0.613157)
(-0.107808 -0.0561734 -0.584857)
(0.162583 0.299248 -0.0276687)
(1.18774 -0.0841115 0.0261585)