/*--------------------------------*- C++ -*----------------------------------*\
  =========                 |
  \\      /  F ield         | OpenFOAM: The Open Source CFD Toolbox
   \\    /   O peration     | Website:  https://openfoam.org
    \\  /    A nd           | Version:  10
     \\/     M anipulation  |
\*---------------------------------------------------------------------------*/
FoamFile
{
    format      ascii;
    class       volVectorField;
    location    "0.05";
    object      U_0;
}
// * * * * * * * * * * * * * * * * * * * * * * * * * * * * * * * * * * * * * //

dimensions      [0 1 -1 0 0 0 0];

internalField   nonuniform List<vector> 
115093
(
(0.0202501 -0.00263047 0.0155751)
(0.0414982 -0.00165144 -0.0210777)
(-0.0156929 -0.00360331 0.0278363)
(0.0806429 0.0103928 0.000742378)
(-0.0636804 0.000638706 -0.00564388)
(0.135684 0.0132587 0.000890023)
(-0.149315 0.0128914 -0.0156832)
(0.234693 0.00779695 -0.0334752)
(0.0119376 -0.000673423 -0.0154549)
(0.0399837 0.00619319 0.0285426)
(0.00476344 -0.0130217 -0.00726658)
(0.0721523 0.018903 0.00905784)
(-0.052904 -0.00375535 -0.0101055)
(0.13802 0.0158291 -0.00618624)
(-0.147331 0.0143649 0.00280831)
(0.237231 0.00520485 -0.0730458)
(0.0279071 -0.00728774 -0.00347738)
(0.0291948 -0.00577932 0.000225339)
(-0.00284052 0.00126552 0.00292948)
(0.0898761 0.0130829 -0.0026651)
(-0.0666892 0.00881665 -0.00679491)
(0.153666 0.00870933 -0.00832689)
(-0.159562 0.0236049 0.00412955)
(0.252955 -0.00269149 -0.0753007)
(-0.0104323 -0.00957241 -0.00076682)
(0.0484358 0.0113919 0.00172621)
(0.0236104 -0.034907 -0.00795433)
(0.0797144 0.0342793 0.00230454)
(-0.0571637 -0.00510276 -0.0135369)
(0.152767 0.0213893 -0.00371997)
(-0.158918 0.0137462 -0.00416506)
(0.256378 0.0192968 -0.06177)
(0.0197216 -0.0350563 0.00229451)
(0.119355 0.0369163 -0.0118352)
(-0.0795418 0.00019782 0.00185239)
(0.172392 0.0159117 -0.0435228)
(-0.16123 0.0271272 0.0408321)
(0.269554 0.018266 -0.08114)
(0.0182608 -0.0027289 -0.020784)
(0.0565363 0.0137343 0.0347893)
(0.0159247 0.0142681 -0.0194313)
(0.0325932 -0.00663344 0.0187808)
(-0.0569333 -0.0149888 -0.0164929)
(0.117388 0.0535689 0.0288819)
(-0.172803 -0.0324668 -0.0335469)
(0.303335 0.0004355 0.0187594)
(0.0580953 -0.0262868 0.0366387)
(0.0529536 0.0316792 -0.0354752)
(-0.0331887 -0.0300005 0.0120834)
(0.0746063 0.00624049 0.00300727)
(-0.0790767 0.00308509 -0.0133209)
(0.150655 0.000454412 0.0294729)
(-0.212455 0.0361539 -0.0139514)
(0.322162 -0.0378335 0.0118777)
(0.036533 0.0166341 0.00778659)
(0.0534547 -0.0264864 0.0177885)
(-0.00960406 0.00314513 -0.0302689)
(0.0655779 0.000825429 0.0276521)
(-0.0628746 0.00247234 -0.0215689)
(0.149728 0.0192668 0.0297072)
(-0.210616 0.00425401 -0.00757186)
(0.321073 0.0317404 -0.0337177)
(0.0657312 -0.0126431 0.0247913)
(0.0291992 0.0140937 -0.142341)
(-0.00597314 0.0034811 0.0558524)
(0.0738304 0.000686664 0.00454867)
(-0.0604609 0.0191883 0.000404864)
(0.152494 -0.0242736 0.0137543)
(-0.200438 0.0607946 0.00149478)
(0.337776 0.0124848 -0.0633361)
(0.0431597 -0.00284543 0.00376901)
(0.0807391 -0.00151352 0.0181978)
(-0.0319736 0.0110031 -0.179158)
(0.0813181 -0.000374104 0.112066)
(-0.0882475 0.0188342 -0.0344396)
(0.19226 -0.00478179 0.0239342)
(-0.173001 0.0646873 -0.0190727)
(0.301846 0.00769194 -0.0302728)
(0.0561963 -0.00581393 -0.000956686)
(0.0749116 0.00426083 0.0265868)
(0.0269408 -0.0246228 -0.0434614)
(0.0427617 0.0387488 0.0780855)
(0.00925261 -0.033602 -0.116706)
(0.0316205 0.0359097 0.191274)
(0.00716474 -0.0596323 -0.0572003)
(0.08343 0.0290472 -0.0951258)
(-0.132001 -0.0155029 0.00389884)
(0.237425 0.0172886 0.0453166)
(-0.386664 0.00166449 -0.0404951)
(0.544681 0.0196288 0.0611866)
(0.0280685 0.00540197 0.0490324)
(0.0425036 -0.0175273 -0.0871247)
(-0.0357033 -0.0244681 0.130582)
(0.0970897 -0.00613981 0.0742998)
(-0.0492026 -0.0142044 -0.0936416)
(0.148588 0.0061041 0.133959)
(-0.173676 0.0352151 -0.235947)
(0.256139 -0.0122462 0.129956)
(-0.389726 0.0603871 -0.0818077)
(0.529036 0.00169516 0.0871552)
(0.021009 0.0293443 -0.080406)
(0.0107846 -0.0152303 0.155628)
(0.0576829 -0.0486769 -0.00660789)
(0.0514448 0.0233712 0.0429751)
(-0.0234008 -0.0104792 -0.0909214)
(0.137946 0.014642 0.142725)
(-0.131185 0.0254553 -0.170785)
(0.25293 -0.0479087 -0.0693037)
(-0.374073 0.0958818 0.0443174)
(0.509302 0.00526676 -0.0304557)
(0.0726794 -0.0346729 -0.0181274)
(-0.00712499 -0.135912 0.0468234)
(0.0136727 0.0381534 -0.0183116)
(0.100217 0.0126076 0.0425027)
(-0.0617831 0.0232966 -0.0855705)
(0.167896 -0.0051764 0.144018)
(-0.190231 0.0548175 -0.160389)
(0.29974 -0.0783635 -0.0929884)
(-0.338265 0.11669 0.052377)
(0.470768 -0.0283141 -0.00886396)
(0.0255007 0.474006 0.457227)
(-0.403095 0.0725966 0.0402742)
(0.137839 -0.191362 -0.0488523)
(0.0266403 0.113447 0.0485192)
(-0.0455925 -0.0134138 -0.0900518)
(0.181129 0.0281048 0.144434)
(-0.253043 0.00298956 -0.210213)
(0.338926 0.0227476 0.027858)
(-0.318853 0.0449287 0.0163759)
(0.454524 0.0121859 -0.0492898)
(0.0136845 0.0594109 0.532324)
(-0.0781118 0.728477 0.489257)
(-0.393448 -0.220551 0.0350693)
(0.247563 0.119317 0.0139779)
(-0.137602 -0.00641677 -0.0478898)
(0.18327 -0.0268132 -0.071189)
(-0.218663 0.0718236 0.0249956)
(0.356855 0.00316655 -0.0281714)
(-0.344841 0.0579364 0.0352917)
(0.470733 0.0123089 -0.0460431)
(0.055393 0.0419425 0.516198)
(0.02435 0.156083 0.590992)
(-0.366834 0.00304908 0.014473)
(0.240407 0.0288996 0.0314751)
(0.0313029 0.0052992 0.0157723)
(0.0460483 0.00241545 0.00103354)
(-0.0309018 -0.00132267 0.0107174)
(0.119644 0.0486696 0.0419553)
(-0.1243 -0.0469095 -0.102882)
(0.109753 0.0903343 0.243333)
(-0.0981168 -0.138008 -0.190601)
(0.272124 0.126891 0.298229)
(-0.393179 -0.117583 -0.293861)
(0.505814 0.152012 0.0486941)
(0.0158409 -0.0587757 -0.0188267)
(0.0423973 0.100134 0.0289684)
(0.0238937 -0.143407 -0.00933399)
(0.039279 0.235001 -0.0205368)
(-0.0156087 -0.0998639 0.0647491)
(0.0873643 -0.0967183 0.148266)
(-0.124291 0.00665327 -0.21661)
(0.286625 0.0181397 0.317321)
(-0.274655 -0.0286416 -0.379417)
(0.43109 0.115017 -0.00987224)
(0.0984273 0.0541931 0.0533703)
(-0.0414377 -0.0988692 -0.0366621)
(0.0864172 0.145994 0.119254)
(-0.244074 -0.0628042 -0.0297313)
(0.290741 0.433371 0.4545)
(-0.225731 0.157863 0.134189)
(-0.0374194 -0.189793 -0.244846)
(0.230456 0.064513 0.319344)
(-0.245602 -0.0173284 -0.415879)
(0.428828 0.0236508 0.0276049)
(-0.0417965 -0.0408604 -0.0856912)
(0.119354 0.0923036 0.153602)
(-0.31325 -0.00395599 -0.0535736)
(0.264734 0.354995 0.484191)
(0.0431292 -0.0598497 0.473827)
(-0.139567 0.778306 0.561293)
(-0.499896 -0.10904 -0.173215)
(0.428365 -0.112399 0.28693)
(-0.312407 0.120973 -0.361005)
(0.451902 -0.0998648 -0.0120062)
(0.197897 -0.0383983 0.168558)
(-0.325011 0.0360728 0.0229438)
(0.295515 0.374045 0.397824)
(0.0431194 0.0460676 0.586893)
(0.0532847 0.0633416 0.463963)
(0.0032361 0.0581945 0.660525)
(0.151538 0.611985 0.210468)
(-0.189201 -0.241982 0.294972)
(-0.297987 0.191208 -0.264299)
(0.435179 -0.117076 0.0317532)
(0.0704256 0.489463 0.449121)
(-0.00578421 0.358189 0.429998)
(0.0326353 0.0544971 0.568488)
(0.0298479 0.0840421 0.571311)
(0.0780607 0.043506 0.484443)
(0.0545461 0.0407655 0.633342)
(0.305836 0.00795111 0.29018)
(-0.242539 0.135959 0.00755635)
(-0.217702 0.00166105 -0.0426777)
(0.396051 -0.00671782 0.0155526)
(0.0319893 0.31924 0.216894)
(-0.0480339 0.239299 0.787692)
(0.0466327 0.0670604 0.492791)
(0.0428432 0.0739237 0.610779)
(0.126762 0.0177679 0.430176)
(0.0465746 -0.0915086 0.641677)
(-0.59642 0.179099 -0.143253)
(0.520306 0.0822042 -0.115928)
(-0.394486 0.0270445 0.0782847)
(0.501249 -0.0330175 -0.053258)
(0.00872562 0.0965551 0.56126)
(-0.00891108 0.118987 0.281786)
(-0.00682 0.0612574 0.779038)
(0.11796 0.0975163 0.487416)
(0.245395 -0.11742 0.478989)
(-0.19219 -0.115066 0.10037)
(-0.177792 0.255623 -0.224301)
(0.309935 -0.043867 0.0746734)
(-0.316295 0.0757149 -0.0282292)
(0.458973 0.00155208 -0.00839545)
(0.0553856 0.0544015 0.628374)
(-0.0103592 0.0914529 0.496298)
(-0.0110641 0.0255714 0.74639)
(0.0961524 0.0591191 0.560018)
(-0.367031 -0.128211 -0.0386097)
(0.268621 0.178751 -0.129656)
(0.104428 0.293547 0.0311826)
(-0.116695 -0.25111 -0.0639521)
(0.283098 0.371318 0.0592422)
(-0.42017 -0.3805 -0.0531413)
(0.0465578 -0.0345663 0.0140726)
(0.0328401 0.0468666 -0.0116998)
(0.0425742 -0.0289013 0.0580123)
(-0.0658342 0.00793575 -0.112212)
(0.151883 0.0502777 0.12169)
(-0.339456 0.0726306 0.0557479)
(0.356426 0.239925 0.256893)
(-0.220346 0.766987 0.715959)
(-0.741642 -0.330704 -0.288679)
(0.797621 0.0435797 0.0150835)
(0.013855 0.0521201 -0.022961)
(0.0622443 -0.0522925 0.0669821)
(-0.0811829 0.134313 -0.117062)
(0.182538 0.0733432 0.163955)
(-0.357464 -0.0971087 -0.0977766)
(0.131913 0.430637 0.517773)
(0.0912359 0.159658 0.308927)
(-0.0084246 0.219228 0.757503)
(0.411045 0.401751 0.0666557)
(0.0119856 -0.003581 0.496512)
(0.0537603 -0.091153 -0.0274761)
(0.0928977 0.164147 0.0830945)
(-0.306644 -0.0734793 -0.0246953)
(0.212845 0.535139 0.402189)
(-0.00853693 0.385404 0.029384)
(-0.133417 0.178444 0.822812)
(0.0495217 0.0919971 0.249696)
(0.0414222 0.0765642 0.832976)
(0.519404 0.108779 0.0933803)
(0.118844 0.0177369 0.560922)
(0.0601822 0.14729 0.0659907)
(-0.213445 0.0338074 0.0473997)
(0.203551 0.35824 0.39429)
(0.0080306 0.233651 0.225101)
(0.0883854 0.182786 0.564342)
(-0.133462 0.0886393 0.20007)
(-0.0204424 -0.0297474 0.561218)
(0.155405 -0.108587 0.698982)
(0.556542 -0.0540182 0.103208)
(0.0159117 0.0142207 0.480931)
(-0.114058 -0.027092 -0.00507259)
(0.120503 0.404783 0.421098)
(0.0367804 0.156527 0.236479)
(0.0705689 0.10905 0.666431)
(0.0422848 0.0687683 0.619309)
(0.0114264 0.0346214 0.643814)
(0.00913573 -0.057987 0.0677965)
(-0.0148026 -0.228739 0.922009)
(-0.686616 0.348173 -0.411801)
(0.769862 0.0309589 0.0238007)
(0.0198722 0.400855 0.301913)
(0.0185287 0.228531 0.337655)
(0.048512 0.0926406 0.655207)
(0.0329933 0.0540628 0.647054)
(0.0635743 0.01823 0.599392)
(0.0863426 -0.00115976 0.64431)
(0.178712 0.00450511 0.198865)
(-0.0334166 -0.426837 0.384461)
(-0.408893 0.458935 -0.364976)
(0.527853 -0.114063 0.145651)
(0.127579 0.465292 0.336786)
(0.0354644 0.336845 0.592553)
(0.00341626 0.0172262 0.600848)
(0.0840432 0.0393367 0.592276)
(0.119692 -0.00639818 0.576933)
(0.0647487 -0.0446279 0.268578)
(0.257784 -0.0870394 0.543495)
(-0.136634 0.0831337 -0.0889859)
(-0.267081 0.059826 0.0265761)
(0.440769 -0.0135931 -0.0218096)
(-0.091966 0.381667 0.348249)
(-0.010198 0.322698 0.687993)
(-0.159904 0.492037 0.774368)
(0.268373 0.0513026 0.53656)
(0.193234 -0.042951 0.204127)
(0.0350875 -0.156548 0.773238)
(-0.539485 0.246292 -0.232103)
(0.535112 0.0521357 0.1232)
(-0.428189 0.0449647 -0.0774279)
(0.542707 0.000899552 0.0238)
(0.0612601 0.0449735 0.468436)
(-0.0832628 0.0553773 0.357014)
(-0.0188316 0.0111468 0.826428)
(0.24034 0.023513 0.16115)
(0.324949 -0.131901 0.624125)
(-0.120493 -0.0887819 -0.153647)
(0.14942 0.224677 0.00380643)
(-0.130768 -0.313945 -0.0225139)
(0.278088 0.422797 0.0235763)
(-0.282626 -0.481213 -0.0209245)
(0.0325682 -0.00721193 -0.0243846)
(0.0917217 0.0494958 0.028058)
(-0.132325 -0.0926539 0.00367523)
(0.175089 0.205516 -0.10097)
(-0.356874 -0.131875 0.181082)
(0.119161 0.567221 0.42433)
(0.116586 0.217149 0.134916)
(-0.0396647 0.833565 0.196049)
(0.476121 -0.0322342 0.425348)
(-0.0181459 0.576818 -0.0657773)
(0.0467888 -0.0987156 0.0226302)
(-0.0564787 0.203946 -0.00487217)
(0.166957 -0.0370299 -0.0762626)
(-0.27854 0.0757233 0.167883)
(0.221078 0.28573 0.4235)
(-0.10375 0.279921 0.207979)
(-0.118304 0.504141 0.449883)
(-0.27623 0.702787 0.62757)
(0.371591 -0.0122945 -0.00751705)
(-0.467649 1.0128 0.959957)
(-0.830692 -0.409255 -0.41875)
(0.179129 0.143404 -0.146694)
(-0.38047 -0.0472912 0.222563)
(0.273133 0.434829 0.412268)
(-0.0805417 0.409242 0.0744181)
(-0.0321221 0.117114 0.0366653)
(-0.170596 0.446972 0.553544)
(-0.0890656 0.227399 0.761794)
(-0.0895058 0.083098 0.864451)
(-0.0443349 0.0752643 0.351726)
(-0.362962 0.210625 1.21319)
(-0.846541 -0.000355796 -0.278317)
(-0.364024 0.0680978 0.194275)
(0.236113 0.302346 0.502285)
(-0.0489593 0.189019 0.125952)
(-0.161697 0.609133 0.302393)
(-0.167172 0.754475 0.362735)
(-0.220598 0.3343 0.811831)
(-0.0762886 -0.012956 0.786299)
(0.00979216 -0.22644 0.83684)
(0.389721 0.0871757 0.0158284)
(-0.359611 -0.230769 1.13981)
(-0.824338 0.421939 -0.424242)
(0.274494 0.387964 0.474974)
(0.00032142 0.155279 0.177963)
(-0.208022 0.579374 0.326745)
(-0.13903 0.368151 0.373536)
(-0.0964027 0.168352 0.698516)
(-0.16851 0.235004 0.613812)
(0.000121494 -0.130529 0.726926)
(-0.135151 -0.0633509 0.270653)
(0.517893 0.0330917 0.347177)
(0.0285748 -0.463173 -0.0629262)
(-0.568274 0.377634 0.0818355)
(0.0103719 0.13948 0.156993)
(-0.10779 0.531923 0.309003)
(-0.094734 0.383312 0.413342)
(-0.104218 0.229635 0.677513)
(-0.0679106 -0.0722189 0.609773)
(-0.0360211 -0.19419 0.534784)
(0.0112753 -0.323391 0.304135)
(-0.00963559 -0.247647 0.899574)
(-0.597376 0.442235 -0.284431)
(0.677302 -0.0562247 0.165268)
(-0.649736 0.0685602 -0.104281)
(-0.0509811 0.616035 0.364271)
(-0.0891697 0.310203 0.372499)
(-0.0772162 0.212821 0.62202)
(-0.0209005 -0.0316235 0.539272)
(-0.0110158 -0.273532 0.454331)
(-0.134384 -0.270576 0.717931)
(0.542848 -0.00170776 0.19574)
(-0.00368376 -0.273085 0.0150001)
(-0.372321 0.324525 0.00157622)
(0.491121 -0.16342 -0.0231046)
(-0.499943 0.174114 0.0441244)
(0.133295 0.306767 0.182168)
(0.0596052 0.308638 0.322102)
(0.0916605 0.113113 0.320452)
(0.0141253 -0.21248 0.502848)
(0.0215869 -0.32882 0.335763)
(0.176688 -0.236928 0.245462)
(-0.442306 0.268835 0.00884554)
(0.454293 -0.0164499 0.0519948)
(-0.419622 0.0837938 -0.0326439)
(0.541237 -0.0148055 0.0221832)
(-0.525866 0.065717 -0.000947745)
(0.110744 -0.0544749 0.134146)
(0.0641104 -0.16182 0.628122)
(0.536408 -0.08203 0.2155)
(-0.0482144 -0.101171 0.00475698)
(0.139533 0.186866 -0.0135963)
(-0.123644 -0.309236 0.0269101)
(0.275701 0.431158 -0.0296731)
(-0.28821 -0.487225 0.0447093)
(0.0619067 -0.0126606 0.0232619)
(0.0627137 0.0393348 -0.0507929)
(-0.0990259 -0.0826607 0.0369037)
(0.138932 0.156731 -0.0265546)
(-0.389147 -0.17448 0.0310639)
(0.299339 0.6256 0.107957)
(0.105169 0.215096 0.0252945)
(-0.0282027 0.860765 0.0339546)
(0.654287 0.0249983 0.0468815)
(0.0363353 0.600518 0.110066)
(0.00698697 -0.0847044 -0.0310031)
(-0.0291535 0.189999 0.0300923)
(0.112968 -0.0243515 -0.00757721)
(-0.296122 0.0810143 0.0279526)
(0.447919 0.400885 0.119442)
(0.00896573 0.432807 0.0740992)
(0.11256 0.799837 0.0993121)
(-0.134434 0.94277 0.0345115)
(-0.0488599 0.420614 0.167498)
(-0.453007 1.21766 0.0137551)
(-0.840764 -0.337472 0.434238)
(0.222806 0.124559 0.113647)
(-0.395866 -0.0188228 -0.210851)
(0.5004 0.44387 0.0260796)
(-0.1498 0.490272 0.00957899)
(0.0268136 0.279813 0.0215467)
(-0.157557 0.762879 0.0904795)
(-0.184261 0.578598 0.2551)
(0.385857 -0.0444458 0.123907)
(0.0174753 0.220033 0.029691)
(-0.0377839 0.383661 0.141435)
(-0.812746 -0.00296352 -0.0746075)
(-0.404038 0.0437355 -0.171403)
(0.481722 0.335479 0.0274723)
(-0.116597 0.255402 0.069449)
(-0.194118 0.649953 -0.132665)
(-0.348204 0.696222 -0.0484165)
(-0.0856844 0.586812 0.0931488)
(0.982781 -0.172161 -0.109556)
(0.118944 -0.235164 0.12269)
(0.00767558 -0.296179 0.1679)
(-0.305902 -0.360964 0.0397762)
(-0.833473 0.353706 0.436146)
(0.5172 0.42451 0.0187359)
(-0.0464541 0.227194 0.0688126)
(-0.259877 0.650324 0.0372454)
(-0.0110716 0.465851 0.0333959)
(0.11129 0.390043 -0.105048)
(1.42897 -0.145913 -0.152081)
(1.03375 -0.265 -0.00749736)
(-0.132611 -0.49367 0.693356)
(0.802298 -0.108625 0.0816379)
(0.0960767 -0.471166 0.113048)
(-0.582843 0.361352 -0.103914)
(0.0617883 0.255325 0.0371172)
(-0.111827 0.578475 -0.106494)
(-0.160701 0.366902 -0.0537482)
(0.189468 0.215209 -0.0190685)
(1.26045 0.00124001 0.179585)
(1.15554 -0.408751 -0.234313)
(-0.0383289 -0.410238 -0.103973)
(0.167356 -0.282321 -0.0107881)
(-0.597649 0.485456 0.303229)
(0.701394 -0.085573 -0.168123)
(-0.669171 0.0472631 0.141243)
(0.117819 0.65088 0.0771409)
(0.0513414 0.68611 0.114416)
(0.126032 0.414349 0.02179)
(0.232022 0.268871 -0.0364601)
(0.357976 -0.0499146 -0.00427887)
(-0.0107629 -0.294184 -0.294128)
(0.553019 -0.0947854 -0.12103)
(-0.0236012 -0.256815 0.112785)
(-0.340628 0.311048 -0.0530051)
(0.473236 -0.159959 0.0170423)
(-0.482799 0.168173 -0.01461)
(0.652524 -0.0930074 0.019923)
(0.702862 0.0861141 0.057391)
(0.478798 0.0866975 0.038767)
(0.468392 -0.196216 -0.0536641)
(-0.0513713 -0.445891 -0.100149)
(0.323296 -0.301062 -0.198059)
(-0.453999 0.25919 0.233772)
(0.502453 0.0104874 -0.134448)
(-0.46111 0.0560404 0.101845)
(0.575212 -0.00137344 -0.0666303)
(-0.545369 0.0446687 0.0594009)
(0.628776 -0.254131 -0.130824)
(0.249325 -0.175054 -0.133421)
(0.591357 -0.138225 -0.158926)
(-0.0663375 -0.10261 0.0928192)
(0.155604 0.210669 -0.0215228)
(-0.144423 -0.294532 0.0688806)
(0.30744 0.413807 -0.0482982)
(-0.420719 -0.394797 0.0492132)
(-0.0168754 -0.0364444 -0.00958535)
(0.106201 0.0796456 0.00168543)
(-0.110698 -0.122929 -0.0402192)
(0.159313 0.230286 0.079356)
(-0.429901 -0.142887 -0.0657942)
(0.399417 0.555544 -0.113807)
(0.25498 0.169018 -0.116886)
(-0.194799 0.90967 -0.176952)
(-0.683283 -0.390459 0.292248)
(0.703853 0.157515 -0.0802723)
(0.0884901 0.00212408 0.0220891)
(-0.0542063 -0.000938917 -0.0702222)
(0.143043 0.0676173 0.127856)
(-0.293035 0.139092 -0.208547)
(0.537938 0.237613 -0.0387786)
(-0.104097 0.334093 -0.0140686)
(0.203047 0.629364 -0.31256)
(-0.0471925 0.625028 -0.318081)
(0.447901 0.412231 -0.00739823)
(0.14811 0.388373 -0.423664)
(-0.663212 -0.383596 0.332012)
(-0.0356598 -0.0333838 0.0213832)
(0.149285 0.107068 -0.0815108)
(-0.314104 0.0243024 0.0160709)
(0.395286 0.363325 -0.0527885)
(-0.0840246 0.13935 -0.00269042)
(-0.272666 0.586597 -0.421083)
(-0.144211 0.301305 -0.446757)
(-0.124761 0.0372157 -0.45627)
(-0.151535 0.019073 -0.368081)
(-0.498593 1.06503 -0.583241)
(-0.828969 0.00263956 0.381107)
(0.178314 0.097806 -0.071022)
(-0.274131 0.0222225 -0.0498229)
(0.414156 0.369638 -0.041159)
(-0.151709 0.257723 -0.080495)
(-0.184259 0.494301 -0.405648)
(-0.124775 0.222285 -0.475749)
(-0.0952118 0.0289518 -0.393595)
(-0.0491374 -0.359358 -0.408317)
(0.582974 0.0601368 -0.060702)
(0.155341 -0.362962 -0.40466)
(-0.663876 0.400642 0.334953)
(-0.299303 -0.0272795 -0.0265808)
(0.427615 0.424009 -0.0767833)
(0.0613985 0.382669 -0.229197)
(-0.0696139 0.694943 -0.385442)
(-0.138088 0.257055 -0.540273)
(-0.119516 -0.0181963 -0.409685)
(-0.159552 -0.307818 -0.329706)
(0.158999 -0.274895 -0.258233)
(-0.620455 0.412009 0.412319)
(0.691255 -0.0961475 -0.0908176)
(-0.632278 0.0381357 0.0278594)
(-0.0248512 0.435384 -0.0719947)
(0.0503508 0.23976 -0.140259)
(-0.174308 0.245902 -0.392351)
(-0.0522538 0.126328 -0.448897)
(-0.0509188 -0.0791957 -0.555811)
(-0.225196 -0.323428 -0.309907)
(0.396384 -0.18439 -0.155435)
(-0.0264807 -0.275689 -0.163592)
(-0.379323 0.351652 0.233378)
(0.525317 -0.150848 -0.130429)
(-0.547364 0.182692 0.108601)
(-0.00574595 0.807421 -0.120594)
(-0.0572169 0.815144 -0.171602)
(-0.0484177 0.701644 -0.34926)
(-0.108939 0.194391 -0.458014)
(-0.0797489 -0.00964567 -0.507136)
(-0.145827 -0.286123 -0.281544)
(0.192008 -0.247192 -0.245875)
(-0.439917 0.25348 0.261972)
(0.464721 -0.0425724 0.00426759)
(-0.426817 0.124065 0.0212108)
(0.54909 -0.0574562 -0.0301928)
(-0.522452 0.0846625 0.0201778)
(0.344365 0.0931149 0.0338195)
(0.523563 0.113616 -0.0699767)
(0.0936994 0.255921 -0.193962)
(0.159004 0.0449321 -0.292224)
(-0.0211931 -0.16016 -0.178267)
(0.444958 -0.199479 -0.14725)
(-0.0821273 -0.139498 -0.0469631)
(-0.189495 0.250351 0.194188)
(0.340889 -0.108997 -0.111189)
(-0.355045 0.153752 0.0954831)
(0.49247 -0.0438569 -0.0561247)
(-0.495532 0.0972964 0.0519198)
(0.0921432 0.157317 -0.316232)
(-0.0258244 0.0880741 0.029958)
(-0.201297 0.00957637 -0.0335459)
(0.254423 0.0848905 0.121338)
(0.0510671 -0.00360219 -0.00520786)
(0.031696 -0.00829157 0.00984305)
(-0.012364 0.0157293 -0.0349645)
(0.0928837 -0.0424186 0.0702915)
(-0.0720091 0.0877805 -0.108158)
(0.140206 0.165635 -0.15343)
(-0.117917 -0.273342 0.277431)
(0.310583 0.36869 -0.352379)
(-0.52589 -0.362916 0.364562)
(0.614545 0.230661 -0.177426)
(-0.0337231 -0.0548402 0.0313249)
(0.0892336 0.0991205 -0.072316)
(-0.0781018 -0.15004 0.118204)
(0.156351 0.223867 -0.220034)
(-0.442079 -0.201986 0.151487)
(0.469837 0.498506 -0.139099)
(0.305797 0.214393 -0.0797052)
(-0.178362 0.846394 -0.253823)
(-0.651034 -0.298524 0.392666)
(0.693074 -0.023523 -0.158589)
(-0.690925 0.0663529 0.056061)
(0.134919 0.0300118 -0.0181637)
(-0.0674969 -0.0675189 0.0274252)
(0.107576 0.109881 -0.114359)
(-0.313218 0.0354946 -0.018154)
(0.597649 0.194609 -0.0234919)
(0.0375573 0.181907 -0.287937)
(0.161383 0.160737 -0.193347)
(0.0011741 0.012817 -0.395193)
(0.577989 0.43153 -0.0391326)
(-0.100793 0.0266465 -0.538697)
(-0.525004 -0.00238804 0.459966)
(-0.102748 -0.0515744 0.0583596)
(0.151228 0.106073 -0.155653)
(-0.337632 -0.00109987 0.0827481)
(0.472847 0.304522 -0.122024)
(0.160063 0.0842551 -0.208218)
(-0.0125488 0.132356 -0.302165)
(0.146199 0.0819823 -0.197816)
(-0.0371676 -0.0508088 -0.320768)
(-0.632947 0.377707 0.3899)
(0.697387 0.03123 -0.156596)
(-0.693653 -0.0289832 0.0574689)
(0.217696 -0.01049 -0.0990186)
(-0.337305 0.0375537 0.0229299)
(0.531926 0.358669 -0.10743)
(0.0685481 0.11152 -0.267368)
(0.0704358 0.100906 -0.224943)
(0.025417 0.0463812 -0.306096)
(0.289508 -0.0487376 -0.161084)
(-0.112519 -0.202568 -0.342923)
(-0.428449 0.272387 0.345823)
(0.541965 -0.137147 -0.161405)
(-0.495353 0.135419 0.147249)
(0.0612297 0.564576 -0.25179)
(-0.00579672 0.345832 -0.210187)
(0.0250611 0.129386 -0.261981)
(0.0190885 0.100252 -0.276463)
(0.111473 0.038334 -0.215278)
(0.0351991 -0.113425 -0.285725)
(-0.438366 0.221803 0.208415)
(0.422565 -0.0614202 -0.06975)
(-0.470367 0.113309 0.113791)
(0.592759 -0.0176024 -0.0892068)
(-0.581512 0.0427339 0.0688128)
(-0.0185544 0.689558 -0.316558)
(0.118125 0.693577 -0.354202)
(-0.0588765 0.344133 -0.11682)
(0.0779395 0.0938984 -0.318442)
(0.109386 0.0908371 -0.225854)
(0.242226 -0.109615 -0.204644)
(-0.155221 -0.0783675 -0.175379)
(-0.220239 0.197352 0.237012)
(0.34329 -0.14334 -0.12104)
(-0.344899 0.17521 0.11639)
(0.478405 -0.0809733 -0.0598345)
(-0.471206 0.110368 0.0573607)
(-0.0960558 0.279904 -0.417272)
(-0.0408051 0.303441 -0.441477)
(-0.142069 0.787334 -0.369253)
(0.214556 0.180317 -0.27336)
(0.121934 0.107385 -0.26895)
(-0.258594 -0.0953457 0.185976)
(0.229748 0.109571 -0.0391595)
(-0.257007 0.000431631 0.0855647)
(0.414008 0.0263516 -0.0605165)
(-0.40581 0.0425491 0.0686174)
(0.529519 0.0198784 -0.0457028)
(-0.516379 0.0400781 0.0426163)
(-0.12397 0.235656 -0.351268)
(0.0090437 0.339072 -0.340337)
(0.101909 0.112818 -0.561891)
(-0.00182894 -0.0205586 0.0118451)
(0.0742979 0.0347697 -0.0259847)
(-0.0478053 -0.0398641 0.032969)
(0.108372 0.0607963 -0.0482185)
(-0.058345 -0.0604518 0.0570417)
(0.0984148 0.0727851 -0.0958595)
(-0.152774 -0.0880582 0.125291)
(0.274728 0.112551 -0.158721)
(-0.379066 -0.103806 0.161991)
(0.035734 -0.0113995 0.00541203)
(0.0337815 0.0162913 0.006174)
(-0.0101506 -0.0188627 -0.00667652)
(0.0938235 0.0416743 0.0470585)
(-0.109447 -0.0720942 -0.081796)
(0.171468 0.031141 -0.180714)
(-0.152441 -0.054472 0.274178)
(0.317965 0.0587547 -0.392674)
(-0.430208 -0.0447523 0.372073)
(-1.43778e-05 -0.00727985 0.0436585)
(0.0675383 0.0185828 -0.0858829)
(-0.022426 0.00157474 0.145335)
(0.0529388 -0.0168971 -0.223623)
(-0.0384183 -0.0275097 0.102984)
(0.138549 0.0112803 -0.184729)
(-0.130655 -0.0020816 0.296754)
(0.267789 0.0164401 -0.42401)
(-0.286501 0.00182406 0.457438)
(0.0485299 -0.0110901 -0.025087)
(0.0428803 0.0231651 0.0737502)
(-0.0474019 -0.0709055 -0.11355)
(0.105502 0.0184023 -0.102658)
(-0.0689154 -0.0225424 0.14314)
(0.167048 0.0240403 -0.18144)
(-0.157614 0.0221554 0.280779)
(0.315631 -0.0163925 -0.374047)
(-0.425272 0.0568133 0.37518)
(0.015513 0.0178157 0.0846611)
(0.00636797 -0.0112545 -0.172165)
(0.0109672 -0.000260309 0.013144)
(0.109887 -0.0371241 -0.064954)
(-0.0658359 0.0434631 0.134052)
(0.175602 -0.0149702 -0.205359)
(-0.147739 0.0688936 0.25172)
(0.290181 -0.0760542 -0.0490185)
(-0.381205 0.100321 0.0769883)
(0.052833 -0.0221823 0.0237723)
(0.0882796 0.0424224 -0.0461253)
(-0.0702177 -0.156513 0.0557206)
(0.113422 0.0668293 -0.0856294)
(-0.0569474 0.0242108 0.139889)
(0.196982 -0.00743826 -0.199696)
(-0.231966 0.0534025 0.274809)
(0.344737 -0.0597889 -0.213363)
(-0.359665 0.111761 0.187406)
(0.0898797 0.468182 -0.174319)
(0.0182385 0.535498 -0.101754)
(-0.439514 0.044256 0.0236375)
(0.244108 -0.154723 -0.0587665)
(-0.125234 0.133511 0.112907)
(0.19967 -0.0736269 0.0263176)
(-0.223841 0.0977792 0.023994)
(0.35757 -0.0323594 -0.00978603)
(-0.366372 0.0793318 0.0273118)
(0.0760164 0.225763 -0.239792)
(0.0573345 0.136353 -0.230038)
(0.0198338 0.719257 -0.138922)
(-0.263159 -0.199666 -0.117774)
(0.00599466 0.125016 0.167977)
(0.143584 -0.0541331 -0.132853)
(-0.181321 0.0983515 0.142235)
(0.0253205 -0.00732675 0.000294913)
(0.0535609 0.00707538 -0.000261439)
(-0.0358027 -0.00138816 -0.00584193)
(0.117206 0.0175627 -0.00254985)
(-0.11082 -0.0103552 0.00712022)
(0.182066 0.0671491 -0.0541518)
(-0.208695 -0.0740849 0.0943524)
(0.311411 0.110639 -0.105045)
(-0.387942 -0.0971752 0.123514)
(-0.00523099 -0.0218241 0.0212783)
(0.0761642 0.0369265 -0.0365749)
(-0.0389331 -0.0356202 0.0458407)
(0.113599 0.0591354 -0.0670148)
(-0.0564856 -0.0332892 0.0700785)
(0.112083 0.0531 -0.077404)
(-0.155815 -0.0577254 0.108057)
(0.276445 0.0706493 -0.119624)
(-0.381352 -0.0650993 0.125514)
(0.0505728 -0.00181159 0.000752728)
(0.0398646 0.00319263 -0.00287426)
(-0.0133963 0.0041313 -0.00138085)
(0.119283 0.0408011 -0.021194)
(-0.116578 -0.0498564 0.0539041)
(0.158468 0.0322407 -0.0726695)
(-0.190453 -0.0233035 0.111349)
(0.301033 0.0272541 -0.137211)
(-0.43132 -0.00735487 0.151499)
(-0.00581023 -0.00948726 0.0230851)
(0.08196 0.0201396 -0.0453178)
(-0.00111544 0.0194758 0.0411801)
(0.0600734 -0.018108 -0.0449862)
(-0.0652463 -0.000186046 0.0682563)
(0.137977 -0.00437881 -0.0763771)
(-0.160474 0.0296902 0.10369)
(0.292394 -0.0607237 -0.118887)
(-0.382657 0.0865827 0.127664)
(0.0645305 -0.0210743 0.00134951)
(0.0689247 0.0285674 -0.0121837)
(-0.0512932 -0.0368925 0.0453088)
(0.100261 0.0191335 -0.0430129)
(-0.103315 -0.0117946 0.0664164)
(0.187323 0.01006 -0.0809932)
(-0.247728 0.0208085 0.100768)
(0.361785 -0.0298146 -0.10729)
(-0.368527 0.074422 0.122289)
(0.0253111 0.0109527 0.00720605)
(0.0672957 -0.0161179 -0.0359649)
(-0.0109438 0.00392289 0.0233387)
(0.0845997 -0.00792344 -0.0175702)
(-0.0740594 0.0196144 0.0419446)
(0.169837 -0.038673 -0.0599894)
(-0.201771 0.0715898 0.0812355)
(0.346202 -0.0169079 -0.0512044)
(-0.373547 0.0601552 0.0636365)
(0.0590278 -0.0154125 -0.00345811)
(0.0882128 0.00848435 -0.0628764)
(-0.0538226 0.0104198 0.176609)
(0.115258 0.0162326 -0.0983037)
(-0.134581 0.00920331 0.0578007)
(0.239598 -0.0036937 -0.0579862)
(-0.225909 0.0595404 0.0780969)
(0.348985 -0.0256716 -0.0530277)
(-0.344362 0.0739945 0.0579472)
(0.0464107 -0.00578236 0.0190929)
(0.0729842 -0.00242863 -0.0476261)
(0.00498661 0.0066 0.0528479)
(0.0764957 0.01746 0.108339)
(-0.0419118 -0.0147017 -0.00247609)
(0.119458 0.0227678 -0.00895656)
(-0.115389 -0.0224446 0.00622607)
(0.197846 0.0298149 -0.0595743)
(-0.209998 -0.0178651 0.0804565)
(0.315727 0.0353478 -0.104782)
(-0.356333 -0.0155588 0.104099)
(-0.0409997 -0.00272226 0.0401561)
(0.113999 0.0075343 -0.0631747)
(-0.105154 -0.00306555 0.0468783)
(0.192325 0.0153079 -0.0670324)
(-0.202207 -0.000147325 0.0881255)
(0.307779 0.0182662 -0.090372)
(-0.344041 0.00280895 0.0971364)
(-0.0432752 -0.0200572 -0.0103316)
(0.119304 0.0204305 -0.031323)
(-0.107428 -0.00629505 0.0434526)
(0.200682 0.0157717 -0.0700021)
(-0.206932 0.0102139 0.0965704)
(0.318605 0.00644267 -0.109612)
(-0.354088 0.0240926 0.111845)
(-0.0342967 0.00741533 0.0222538)
(0.127641 -0.00626669 -0.0383444)
(-0.10958 0.0179433 0.0479366)
(0.208524 -0.00201958 -0.0530406)
(-0.211772 0.0260858 0.069877)
(0.321145 -0.00636023 -0.0264728)
(-0.346698 0.0362554 0.0351554)
(-0.0494903 -0.0215888 0.0181395)
(0.129882 0.0152439 -0.0348805)
(-0.103018 0.0113951 0.0535654)
(0.208647 0.00287009 -0.0650247)
(-0.211445 0.0289837 0.0881743)
(0.328326 -0.00325624 -0.072017)
(-0.34098 0.0452163 0.0666398)
(-0.0341295 0.00343074 0.0232018)
(0.160275 -0.0233032 -0.0227069)
(-0.121616 0.0337563 0.0375517)
(0.225773 -0.00901835 -0.00748774)
(-0.217319 0.0394588 0.0225978)
(0.337154 0.00224715 0.00191831)
(-0.340671 0.0422194 0.00550176)
(-0.0299353 -0.105523 -0.614976)
(-0.169029 0.162214 0.541428)
(0.00623051 -0.225197 -0.662357)
(-0.059932 0.161384 0.554758)
(-0.0592357 -0.0680638 -0.373096)
(0.0541869 0.0171446 0.561013)
(-0.0724886 -0.0814184 -0.447361)
(-0.00559323 -0.342107 -0.371086)
(0.0678998 -0.0397202 -0.452633)
(0.139892 -0.432655 -0.150136)
(0.0259152 -0.265405 -0.544415)
(0.0508389 0.0527467 0.517168)
(0.0572285 -0.085021 -0.41937)
(0.081643 0.448282 0.223422)
(-0.00665089 -0.363614 -0.240263)
(0.593519 0.0602823 0.242643)
(0.00809738 -0.176438 -0.646197)
(-0.13751 0.0241021 0.368123)
(-0.0267414 -0.0268351 -0.618557)
(-0.00925906 0.388656 0.416988)
(0.234946 -0.181059 -0.26251)
(0.585861 0.0695625 0.304811)
(0.0937976 -0.0254252 -0.0950436)
(0.0721125 -0.0311391 -0.422256)
(0.0529026 0.0161133 -0.421187)
(0.0599503 -0.0755454 -0.421923)
(0.0548419 -0.0636949 0.526389)
(0.0992742 0.0506911 -0.363197)
(0.565802 -0.0208444 0.261344)
(-0.0237398 -0.0247737 -0.600486)
(-0.0587965 -0.112379 0.728866)
(-0.0381841 0.0176067 -0.717838)
(0.557525 0.0304725 0.303988)
(0.0474982 -0.0252797 -0.127385)
(-0.0625506 -0.136115 -0.752611)
(-0.24634 0.118833 0.536941)
(-0.0586223 -0.132061 -0.706627)
(-0.130012 0.581903 0.252922)
(0.694453 -0.127534 -0.0155752)
(1.17502 -0.120678 0.0246276)
(1.4392 -0.296893 -0.131686)
(-0.0901084 -0.0891465 -0.417459)
(-0.0886139 -0.0385723 0.62071)
(-0.110306 -0.0551546 -0.593094)
(0.162411 0.303739 -0.0289435)
(1.20264 -0.0877308 0.0255747)