/*--------------------------------*- C++ -*----------------------------------*\
  =========                 |
  \\      /  F ield         | OpenFOAM: The Open Source CFD Toolbox
   \\    /   O peration     | Website:  https://openfoam.org
    \\  /    A nd           | Version:  10
     \\/     M anipulation  |
\*---------------------------------------------------------------------------*/
FoamFile
{
    format      ascii;
    class       volVectorField;
    location    "0.05";
    object      wallShearStress;
}
// * * * * * * * * * * * * * * * * * * * * * * * * * * * * * * * * * * * * * //

dimensions      [0 2 -2 0 0 0 0];

internalField   uniform (0 0 0);

boundaryField
{
    inlet
    {
        type            calculated;
        value           nonuniform List<vector> 0();
    }
    outlet
    {
        type            calculated;
        value           nonuniform List<vector> 0();
    }
    walls
    {
        type            calculated;
        value           nonuniform List<vector> 0();
    }
    drone
    {
        type            calculated;
        value           nonuniform List<vector> 
13374
(
(-0.00808388 0.00897865 -0.00311921)
(-0.0123993 0.00763657 -0.00257712)
(-0.0127594 -0.00455848 0.00221566)
(-0.00650394 0.00749749 -0.0023414)
(-0.0126672 0.00497698 -0.000418574)
(-0.00227612 0.00309967 0.000976127)
(-0.0146443 0.00632369 -0.000584998)
(-0.00185214 0.00207558 0.000788233)
(-0.00187746 -0.000885857 0.000705639)
(-0.00185546 -0.00161074 0.000910935)
(-0.00337538 -0.00546294 0.000316218)
(-0.00557752 -0.00284546 0.00020022)
(-0.000849598 -0.0034217 -2.68533e-05)
(-0.0110186 -0.00327594 0.00491532)
(-0.0019052 0.00143249 0.00053916)
(-0.0179164 0.00333686 0.00724449)
(-0.00382609 -0.00334649 1.6431e-05)
(-0.00910327 0.00714356 -0.00206691)
(-0.00522973 0.00901868 -0.00313642)
(-0.0199197 -0.0112688 0.00061503)
(-0.00234818 0.00110665 0.000647425)
(-0.0211649 0.00928851 -0.0010788)
(-0.00146218 0.00121304 0.000806886)
(-0.0164732 0.00613388 -0.000131637)
(-0.000463958 0.0007932 -0.00201031)
(-0.000257173 -0.000439493 0.00051593)
(-0.00073285 -0.000668429 0.00260705)
(-0.0125453 0.00596185 0.00125946)
(-0.00862562 -0.00233008 -0.0012575)
(-0.00510573 -0.00345661 0.000977554)
(-0.0234996 -0.00783456 0.000815814)
(-0.0153172 0.0100287 0.00117917)
(-0.00164103 0.000549309 0.00081096)
(-0.00451279 -0.00503294 0.0012217)
(-0.00816101 -0.00769137 0.000954859)
(-0.00541609 -0.00177309 -0.00107927)
(-0.0121286 -0.00360124 -8.63417e-05)
(-0.0182873 -0.00440516 -0.00117131)
(-0.00539193 -0.000280837 -0.000466174)
(-0.00272772 -0.000229977 -0.00106938)
(-0.00212214 -0.000238825 -0.00126435)
(-0.00438337 0.000170524 -0.00195776)
(-0.00644274 -0.000525644 -0.00323003)
(-0.00981657 0.00077934 -0.00110081)
(-0.00818319 0.000614007 -0.00197183)
(-0.00609925 0.00128836 0.000487727)
(-0.00889994 0.000101043 -0.00202713)
(-0.00520539 -0.000890139 -0.000570262)
(-0.0136681 0.00673458 0.00530041)
(-0.00495851 0.00185196 -0.00174942)
(-0.0176933 0.00257157 -0.00019747)
(-0.0079778 -0.000882284 -0.000630364)
(-0.00497281 -0.000400749 -0.00105166)
(-0.00243493 -1.30399e-05 -0.000786081)
(-0.0058945 0.000901424 0.000788027)
(-0.00409998 0.000847981 0.000403998)
(-0.0141126 -0.00182844 0.000357318)
(-0.0140712 -0.00191569 0.000233121)
(-0.017479 0.00468329 -0.000587669)
(-0.0118362 0.00286198 -0.000203502)
(-0.00734824 0.000804599 0.000822766)
(-0.01247 0.00293923 5.27562e-05)
(-0.0138649 0.00334147 -0.000647793)
(-0.0112877 0.00264112 -0.00014765)
(-0.00840049 0.0066801 -0.0016454)
(-0.0103893 0.00611961 0.00291546)
(-0.0144495 0.00338105 -0.000378652)
(-0.0107616 0.00252024 -0.000396714)
(-0.00291941 -0.000811268 -0.000471555)
(-0.0143096 0.0031475 -0.000370343)
(-0.00904607 0.00158964 -6.65679e-05)
(-0.00963417 0.00678246 -0.00233239)
(-0.0141297 0.00302392 -0.00167313)
(-0.00758845 -0.00260395 -0.00137909)
(-0.00295863 -0.000616887 -0.000302865)
(-0.00541355 0.00218008 -0.00266097)
(-0.0107229 0.00104681 -0.000263385)
(-0.0170044 0.00161567 -3.45873e-05)
(-0.0172823 0.00163009 -0.000193958)
(-0.00944473 0.00522807 -0.00261492)
(-0.00754442 -0.000688548 -0.000719924)
(-0.0114393 -0.000898726 -0.000804591)
(-0.0119206 -0.0010512 -0.000495253)
(-0.00120216 -0.00124251 0.000482827)
(-0.00240151 -0.00308886 0.000177519)
(-0.00247934 -0.00229568 0.000142645)
(-0.00235437 -0.00224932 0.000139863)
(-0.00699833 -0.000606604 -0.00115357)
(-0.00308799 -0.000385732 -0.000506645)
(-0.00274373 -0.000128703 -7.26841e-05)
(-0.00251584 -0.000186638 6.54582e-05)
(-0.00292628 0.000259568 -0.00140165)
(-0.00629917 -0.000627136 -0.000260583)
(-0.00461144 -0.000314399 -0.000349875)
(-0.00195765 -0.00020484 2.06802e-06)
(-0.00289662 -0.000202165 -8.19306e-05)
(-0.00125667 0.000121899 2.47405e-05)
(-0.00167745 -0.000110903 5.33071e-05)
(-0.00125395 2.99238e-05 -0.000239015)
(-0.00220562 -6.03462e-05 -0.000210556)
(-0.0016312 -0.000118595 5.32407e-05)
(-0.00115513 -8.88916e-05 -4.46806e-05)
(-0.00169929 -0.000119116 6.02404e-05)
(-0.00119107 -8.6981e-05 2.48086e-05)
(-0.00192891 -8.33177e-05 -0.00016342)
(-0.00112376 -0.000120806 -0.000308433)
(-0.00195722 -0.000106007 -0.00021769)
(-0.00115346 -9.3043e-05 -0.000238553)
(-0.00148351 -7.15969e-05 -0.000431259)
(-0.00158486 -0.000139015 -0.000500145)
(-0.0048083 -0.000261177 -0.00118699)
(-0.00542544 0.00230731 -0.000185776)
(-0.00952296 0.00336091 -0.00105093)
(-0.00119097 0.000857161 0.000278367)
(-0.0132166 0.000255619 0.000349225)
(-0.00795084 0.00289566 0.00192794)
(-0.00585266 0.00467287 0.00237778)
(-0.000784985 0.00103934 -0.000106097)
(-0.000847366 0.000987035 0.000136683)
(-0.00435593 0.000344787 -0.000311544)
(-0.00290949 -0.000214104 1.39122e-05)
(-0.00456448 -0.000223652 -0.00027482)
(-0.00371268 -0.000311304 -0.000520739)
(-0.00257273 -0.00041795 -2.12022e-06)
(-0.00279908 -0.000393498 -4.05557e-05)
(-0.000753246 8.93465e-05 -0.00031962)
(-0.0219139 0.00314394 -0.00454333)
(-0.00377849 0.000300533 -0.000697338)
(-0.00399386 0.000200944 -0.00062667)
(-0.0050206 0.000110556 -0.000232006)
(-0.0117684 0.00151408 -0.00059455)
(-0.00311955 -0.000785301 -0.00014263)
(-0.00586166 -0.000560441 0.000475376)
(-0.00627493 -0.000410079 -1.74691e-05)
(-0.0117237 -0.00407928 0.00389287)
(-0.000526623 -0.00142009 -0.00088876)
(0.000609422 -0.000642453 0.00106238)
(-0.00213765 -7.55142e-05 -0.000125443)
(-0.00325944 8.64325e-05 -4.86296e-05)
(-0.00431029 0.0047795 -0.00489188)
(-0.00881993 0.000762353 -6.67549e-05)
(-0.014802 -0.0015759 0.000846817)
(-0.0144346 -0.00170819 0.000643137)
(-0.00401489 -9.19548e-05 -0.000280558)
(-0.00294516 -0.00033679 -0.000474986)
(-0.00267697 0.000231456 0.000224965)
(-0.00352824 1.31703e-05 0.000228694)
(-0.00181945 -0.000272343 -0.00017384)
(-0.0118609 -0.00281782 -0.00691599)
(-0.00712481 -0.000751635 -0.00289557)
(-0.00789784 -0.00104962 -0.000377882)
(-0.00342914 -0.000286424 -0.00434502)
(-0.0020368 0.000162043 -0.000839447)
(-0.002577 0.000311165 -0.00124648)
(-0.00279037 -1.96649e-05 -0.00339759)
(-0.00906149 0.00846234 -0.00286318)
(-0.0107685 0.00241317 -0.00184039)
(-0.0152881 0.00330678 -0.00274062)
(-0.00887318 0.000193657 -0.000457226)
(-0.0102571 0.000445395 -0.000248772)
(-0.00285252 -0.000503385 -5.14535e-05)
(-0.00413162 -0.000271189 -0.000305226)
(-0.00542128 -0.00200115 -4.24642e-05)
(-0.00457327 -0.00143175 0.000307201)
(-0.00280855 6.43687e-05 -0.000351724)
(-0.00320839 0.000132094 -0.000330017)
(-0.00287449 0.000196841 -0.000252275)
(-0.00344642 2.38579e-05 -0.000416537)
(-0.00391755 0.000410439 -0.00058582)
(-0.00388775 0.000209299 -0.000756276)
(-0.0031352 -1.63863e-05 6.45846e-05)
(-0.00264564 -0.000338907 -1.88458e-05)
(-0.00460674 -0.000360251 0.000479319)
(-0.00361071 -0.000531534 0.000405111)
(-0.00330415 7.82998e-07 8.23595e-05)
(-0.00162981 -0.000361965 0.000876547)
(-0.000731223 -0.000167262 0.000679409)
(-0.00185002 -0.000230013 0.000887524)
(-0.00614111 -6.83309e-05 0.000410275)
(-0.00409665 -6.17288e-05 5.79438e-05)
(-0.00583581 -0.00034281 -0.000109374)
(-0.00183048 -0.000429361 -6.54483e-06)
(-0.00204065 -0.00017713 0.000108819)
(-0.00348639 -2.36524e-05 -7.2444e-05)
(-0.00445934 -0.000306889 -0.000457333)
(-0.00223093 -0.00012958 -0.00034806)
(-0.0027146 -0.000227565 -0.000377779)
(-0.00318462 -0.000328414 -0.00049053)
(-0.0019621 -0.000138293 0.000124067)
(-0.00202486 -0.000167678 0.000148915)
(-0.00161979 -0.000117383 4.68389e-05)
(-0.00121228 -0.000108928 -8.24535e-05)
(-0.00155389 -0.000123847 3.65461e-05)
(-0.001185 -0.000102537 5.52568e-06)
(-0.00193179 -0.000129739 0.000118833)
(-0.00183211 -0.00010572 0.000126209)
(-0.00128305 -0.000196097 -0.000122873)
(-0.00160474 -9.90992e-05 2.30673e-05)
(-0.00185403 -8.09834e-05 0.000148062)
(-0.00187812 -7.85706e-05 -0.000307113)
(-0.00204524 -0.000110683 -0.00032223)
(-0.00190704 -9.96329e-05 -0.000185184)
(-0.00119948 -9.03327e-05 -0.000344095)
(-0.00115617 -0.000102614 -0.000245846)
(-0.00200933 -0.000220292 -0.000273833)
(-0.00186067 -9.36339e-05 -0.00031193)
(-0.00129902 -0.000232383 -0.000369408)
(-0.00160321 -6.62653e-05 -0.000501583)
(-0.00212035 -0.000119408 -0.000361777)
(-0.00151826 1.42349e-05 -0.000960781)
(-0.00949947 0.000682923 0.000139467)
(-0.00667782 1.2119e-05 0.000626206)
(-0.00915031 0.000502613 6.69961e-05)
(-0.00889851 0.000797799 -2.9882e-06)
(-0.00904872 0.000402158 -0.000228646)
(-0.00876597 0.000615645 -0.000147186)
(-0.00953387 0.000595929 0.000152131)
(-0.00294412 0.000649786 -0.000351254)
(-0.0053014 -0.000174059 0.000365239)
(-0.0032057 0.000323745 -0.000176541)
(-0.00273386 0.000308215 -0.000303133)
(-0.00574331 -0.00037183 0.000333552)
(-0.00391047 0.00012039 -0.000479971)
(-0.0153862 0.00356373 0.000448801)
(-0.0151629 0.00537647 -0.00200919)
(-0.0146975 0.00176628 0.000325423)
(-0.0225996 0.00182128 0.000468638)
(-0.0152254 0.00371332 -2.9204e-05)
(-0.00979662 0.00275978 -0.000419798)
(-0.00315967 -0.00153898 0.00048282)
(-0.0018881 -0.00138955 0.000110399)
(4.96533e-06 -2.64398e-05 -0.000100478)
(-0.0067372 0.00204855 -0.000697961)
(-0.01689 -0.00881487 0.00258139)
(-0.00733913 0.00186517 0.00346792)
(-0.0175535 0.00231939 0.00276332)
(-0.00734085 0.00126532 0.00274274)
(-0.0173499 0.00168503 0.00200772)
(-0.0169623 -0.00102999 -0.00150828)
(-0.000285374 0.00116239 -0.000435291)
(-0.0139853 0.00108112 9.3329e-05)
(-0.000805379 -9.10479e-05 -0.000117059)
(-0.00150869 0.000745752 0.000322763)
(-0.000614124 0.00108959 -0.000532682)
(-0.0163818 -0.00119573 -0.00179262)
(-0.014023 0.00250779 0.00189496)
(-0.0123855 0.00236592 0.00198399)
(-0.00357637 0.00271563 -0.00060546)
(-0.00419402 0.0032919 -0.000858782)
(-0.00731939 0.00600323 -0.000418327)
(-0.0143207 0.00190588 -0.00356233)
(-0.00805955 0.0013531 -0.000183602)
(-0.0192518 0.00295933 -0.000360082)
(-0.0146316 -0.000135321 0.000587657)
(-0.019956 0.00130546 0.000578566)
(-0.00565059 0.000543362 -0.000315428)
(-0.0112195 0.00222071 -0.00369753)
(-0.00797694 0.000931012 -1.85292e-06)
(-0.0130003 0.00307421 -0.000512805)
(-0.00645794 0.00025082 -2.07881e-05)
(-0.0145836 0.00223465 -0.00412195)
(-0.00472039 -0.000369927 -0.000245015)
(-0.0105284 0.0023884 -0.000263633)
(-0.0205369 0.00235559 -0.00513405)
(-0.00600705 0.000319483 -0.000325865)
(-0.0236202 0.000608826 0.000927938)
(-0.00814048 0.00244908 0.00222792)
(-0.0097819 0.00320148 0.00234879)
(-0.0162368 0.00417098 0.0040402)
(-0.00276827 0.00219502 -0.000167228)
(-0.00295643 0.00243607 -0.000181586)
(-0.0129693 0.00778567 0.00502713)
(-0.00268493 0.00230316 -0.000284702)
(-0.0079008 0.00572177 -0.0018576)
(-0.00291594 0.0021897 -0.000149226)
(-0.00770895 0.00572034 -0.00195243)
(-0.0038132 0.00306924 -4.93197e-05)
(-0.0037759 0.00326318 -0.000253376)
(-0.00366934 0.00294815 0.000270502)
(-0.0171144 0.00291368 0.000762807)
(-0.00759252 -2.44775e-05 9.26157e-05)
(-0.0122079 0.00257395 0.000376604)
(-0.00575277 0.000468944 0.000204545)
(-0.0121092 0.00281273 0.000398047)
(-0.01559 0.0022571 0.000674875)
(-0.0131994 0.0028968 0.000253211)
(-0.00595605 -0.000636187 7.17313e-05)
(-0.00360244 -0.000161304 6.31704e-06)
(-0.00977618 0.00204729 0.000458436)
(-0.0144993 0.00322117 -0.0002213)
(-0.00217486 -0.000171977 5.19449e-05)
(-0.0060127 0.00122118 0.000259082)
(-0.0129555 0.00340048 -0.000279902)
(-0.00570585 0.00103722 0.000383017)
(-0.0175948 0.0040958 0.000550283)
(-0.00872491 0.00218286 0.000311265)
(-0.0022152 -0.000302252 9.66695e-06)
(-0.00356571 0.000314977 -5.60848e-06)
(-0.00543052 -0.000469952 -1.93049e-05)
(-0.00173515 -0.000315248 -0.000293431)
(-0.00250047 -0.000784282 -0.000355405)
(-0.00441668 -0.000912793 -2.35446e-05)
(-0.00346571 -0.00127589 -0.000508088)
(-0.00187057 -0.000474058 -0.000178213)
(-0.0036344 -0.00131835 -0.000575201)
(-0.00390081 0.003019 -0.000236829)
(-0.00283019 0.0023204 -0.000307949)
(-0.00357356 0.00294267 -0.000201803)
(-0.00297487 0.0025307 -0.000549049)
(-0.0160465 0.00304738 0.00185587)
(-0.00315278 0.00265155 -0.000400262)
(-0.0147099 0.00277662 0.00205874)
(-0.00392894 0.00307657 -0.000391416)
(-0.0039281 0.00307786 -0.000391251)
(-0.000529334 0.000755022 0.000249518)
(-0.000530182 0.000754933 0.000249846)
(-0.000943504 0.000867145 3.42429e-05)
(-0.00623706 0.00454138 0.00262734)
(-0.00730559 -0.00116807 -0.00119274)
(-0.00662367 -0.000607463 -0.000286814)
(-0.00737971 -0.00154194 -0.00120464)
(-0.000965166 0.00127361 5.88874e-05)
(-0.000985459 0.00117859 4.83997e-05)
(-0.00547833 -0.000778407 -0.00017419)
(-0.00784074 -0.00159174 -0.00125018)
(-0.000617756 0.00078606 0.000387704)
(-0.000617812 0.000786028 0.000387736)
(-0.00758188 -0.00154037 -0.00128522)
(-0.00103023 0.000954131 0.000120908)
(-0.00241726 0.000102083 9.95238e-05)
(-0.00246976 0.000114264 1.78128e-05)
(-0.00176377 -6.22109e-05 -3.81749e-05)
(-0.00219998 6.05704e-05 -1.1924e-05)
(-0.00389226 0.000176067 -7.55178e-05)
(-0.00377659 0.000252359 0.000108189)
(-0.00248072 6.56013e-05 9.4651e-05)
(-0.00327031 -3.52474e-05 -8.8827e-06)
(-0.003622 -0.00014617 -2.40174e-05)
(-0.003141 0.000176344 -5.24253e-05)
(-0.00431549 0.000477351 -3.23628e-06)
(-0.00356373 0.000258265 -0.000152643)
(-0.00371644 -0.000105866 2.3027e-06)
(-0.0033225 0.000236261 -0.000230252)
(-0.00379484 0.000402033 -0.000245528)
(-0.00260972 4.32372e-05 -0.000138494)
(-0.00294262 0.00013114 -9.78564e-05)
(-0.00697213 0.000634535 2.7455e-05)
(-0.00463823 -0.000241425 -0.000250647)
(-0.00328011 -9.70515e-05 -8.45119e-05)
(-0.00236686 -0.00024949 6.67531e-05)
(-0.0022979 -1.03141e-05 2.30241e-05)
(-0.00194364 -8.81267e-05 5.55343e-05)
(-0.00365621 2.87816e-05 -0.000215285)
(-0.00372616 0.000398065 -0.00030935)
(-0.0025792 -0.000236012 -0.000120391)
(-0.00445293 -0.000326762 -0.000414419)
(-0.00220625 -7.14205e-05 0.000118914)
(-0.00295548 -0.000220511 -3.71833e-05)
(-0.00281292 -0.000288459 -0.000115961)
(-0.00453955 -0.000374011 -0.000364249)
(-0.00232428 -0.000467321 -0.000148624)
(-0.00558688 -0.00105564 -0.000111036)
(-0.0062148 -0.000444938 -0.000724254)
(-0.00261197 -0.00026588 -0.000339101)
(-0.00402215 -0.000759965 0.000115119)
(-0.00264683 -0.000441022 -2.46601e-05)
(-0.00265943 -0.000229575 0.000144557)
(-0.00218707 -0.000395304 6.78504e-05)
(-0.00198204 -0.000271873 -2.2781e-05)
(-0.00263395 -0.000241277 5.92489e-05)
(-0.00569343 -0.00116852 -0.000275331)
(-0.0031361 -0.000446313 8.44023e-05)
(-0.00303179 -0.000731976 -0.000122107)
(-0.00221146 -0.00049261 -7.61293e-05)
(-0.00467507 -0.00101036 -0.00214303)
(-0.00467355 -0.00101 -0.00214232)
(-0.00467946 -0.00101067 -0.00214441)
(-0.00455366 0.00328674 -0.000402954)
(-0.00433675 0.00337027 -1.78248e-05)
(-0.000376634 0.000407002 -0.000457233)
(-0.00803098 0.00338842 -0.0061176)
(-0.000918927 0.00108859 -0.000374727)
(-0.000666846 0.000520822 9.97789e-05)
(-0.00774004 0.00331524 -0.00563398)
(-0.000679226 -0.000219888 -0.00105733)
(-0.00397652 -0.000600454 -0.00439773)
(-0.00191342 0.000141455 -0.000825307)
(-0.000946543 0.000153206 -0.00100188)
(-0.000637598 0.0013456 -0.00113986)
(-0.00107909 -0.000649416 -0.000517949)
(-0.000756308 0.00122623 -0.000513208)
(-0.000319756 0.000773841 -0.000473686)
(-0.00172091 -0.000884686 0.000223053)
(-0.0012443 -0.00118064 -0.00130674)
(-0.000907955 -0.00037892 -3.54284e-05)
(-0.000865985 0.000913686 -0.00094718)
(9.11044e-06 0.00130313 -0.000749103)
(-0.00141764 -0.000141821 -2.07336e-05)
(-0.00116668 0.000613561 0.000372517)
(-0.00242108 -0.00068944 -0.000921258)
(-0.0255867 0.00188089 0.0030879)
(-0.0143469 0.0013376 0.000351151)
(-0.0139718 0.00156842 0.000470741)
(-0.0143151 0.000204936 -0.00105303)
(-0.00254317 0.0023522 0.0014997)
(-0.0154768 0.00118319 0.000979001)
(-0.00320795 0.00375986 0.00136557)
(-0.0151921 0.00144832 0.00096384)
(-0.0167781 0.00223453 -0.00105612)
(-0.0089132 0.000451533 -0.000604166)
(-0.0132533 -9.86556e-05 -0.00131109)
(-0.0140851 8.42415e-05 -0.00125524)
(-0.00846555 0.00638966 0.00504679)
(-0.0208169 -0.00107216 -0.00146403)
(-0.0132238 0.000526071 -0.000356202)
(-0.00723257 0.000246177 -0.000196365)
(-0.0111218 0.000965791 -0.000778464)
(-0.0149145 0.0006759 -0.00018944)
(-0.0142943 -3.67482e-05 0.000881026)
(-0.01477 0.000119578 0.000954107)
(-0.00367326 -0.000838434 -4.52082e-05)
(-0.00248776 -0.000703639 -9.32729e-05)
(-0.00235651 -0.000560899 -0.000172241)
(-0.00369403 -0.000839377 -0.000175912)
(-0.00791456 -0.00214982 0.000192174)
(-0.00267602 -0.000580386 -0.00013117)
(-0.00595422 -0.00145077 -0.000106758)
(-0.00538777 -0.00127332 0.000222938)
(-0.0125651 -0.000738391 0.000275578)
(-0.0131731 -0.000807214 0.000305195)
(-0.00277743 -0.000351935 -1.4849e-06)
(-0.00370859 -0.000316932 0.000140508)
(-0.0117972 -0.000620968 0.00024249)
(-0.00253806 -0.000531347 0.00017826)
(-0.00319211 -0.00045597 0.000427128)
(-0.0036678 -0.000477683 0.00052212)
(-0.00255969 -0.00210017 0.000679951)
(-0.00155868 0.000247167 0.000354587)
(-0.0140864 -0.00587693 0.00517675)
(-0.00268434 -0.000688888 0.000880803)
(-0.00520849 -0.0014913 0.00242782)
(-0.00498991 -0.00150085 0.00237681)
(-0.00493521 -0.00146773 0.00233996)
(-0.00493028 -0.00146137 0.00233438)
(-0.00205959 -0.000819744 0.00141297)
(-0.00298588 -0.00139982 0.00145465)
(-0.000322748 -0.000652205 0.000830888)
(-0.00165573 6.32872e-06 0.000407399)
(-0.00101415 -0.000889598 0.00105071)
(-0.000237827 0.000730342 0.000388826)
(-0.00044022 -0.000661929 -0.000789412)
(-0.00130296 -0.00062321 9.31139e-06)
(-0.000977076 0.000126893 0.000108172)
(-0.00188205 0.000266333 0.000299064)
(-0.000704224 -0.000973249 -0.000671514)
(-0.00189757 -0.000876979 0.000633558)
(-0.000218901 0.00119982 0.000471645)
(-0.000823379 0.000762448 -9.82428e-05)
(0.000460381 -0.00112329 0.00132893)
(-0.00164662 -0.00117212 0.00081951)
(-0.00145516 -0.000605739 0.00109973)
(0.000199046 -0.00119609 0.00171593)
(-0.000314116 0.0012153 0.000307773)
(-0.00119521 0.00045791 0.000345423)
(-0.000874614 -0.00036395 0.000704455)
(-0.00414487 0.000283973 -0.000763191)
(-0.00370884 0.000174639 -0.000451506)
(-0.00250296 -3.22342e-05 -0.000196237)
(-0.00342227 3.16287e-05 -0.000179554)
(-0.00252073 3.5394e-05 -0.000178872)
(-0.00650355 -0.000244838 -0.000955567)
(-0.00307186 -8.43055e-06 4.01364e-05)
(-0.00350913 0.000141868 -0.000496612)
(-0.00287443 -0.000314376 -0.000435989)
(-0.00290171 2.94027e-05 -6.17743e-05)
(-0.00209842 -9.05213e-05 7.3757e-05)
(-0.00245306 2.68897e-05 -0.000110717)
(-0.00226729 -4.18521e-05 -0.000124635)
(-0.00296353 -0.000130114 -0.000184357)
(-0.00141203 3.37783e-05 -0.000149652)
(-0.00214133 3.29642e-05 -0.000112474)
(-0.00257547 -0.000485042 -0.000275036)
(-0.00319406 -0.000208493 -0.000195017)
(-0.00268659 -0.000224371 0.000359982)
(-0.00281244 -0.000264774 0.000497284)
(-0.00334971 -0.000313227 0.000370657)
(-0.00215798 -5.23654e-05 8.96968e-05)
(-0.00203571 -0.000257838 7.60116e-05)
(-0.00298449 -0.000174446 8.59949e-05)
(-0.00126724 -0.000205843 0.000205786)
(-0.00242677 9.89406e-06 7.25191e-05)
(-0.00185464 8.74062e-05 0.000336174)
(-0.00268567 -5.5793e-05 0.00012621)
(-0.00295976 -0.000247032 0.000305057)
(-0.0026302 -0.000274212 0.000284857)
(-0.00416923 -0.000822195 0.00110378)
(-0.00147141 -0.000114536 0.000532631)
(-0.00180866 -5.12906e-05 0.000519984)
(-0.0022286 -3.99058e-05 0.000352466)
(-0.00623198 -0.000374194 -0.00164085)
(-0.00279755 -6.77057e-05 0.00016834)
(-0.00213912 -6.25862e-05 0.000638055)
(-0.00190351 -0.000301508 0.00056981)
(-0.00483784 -8.11211e-05 0.00104791)
(-0.00389161 -0.000218135 0.000970472)
(-0.00492867 0.0001923 0.00117079)
(-0.00609379 0.000696846 -0.000158926)
(-0.00265654 -0.000131069 -0.000862637)
(-0.00279571 1.16609e-05 -0.000818363)
(-0.00144273 -0.000144655 -0.00038517)
(-0.00169199 -0.000152144 -0.000542871)
(-0.00175744 -1.93584e-05 -0.000502823)
(-0.00754829 0.00816266 0.000827903)
(-0.0106287 0.00132401 -0.000566147)
(-0.0118061 0.00105235 -1.115e-05)
(-0.0129555 0.00162671 -0.000499563)
(-0.00433038 -0.000494229 -0.00177329)
(-9.91958e-05 0.000345505 -9.40941e-05)
(-0.00256889 0.00258654 -0.00082968)
(0.000675954 0.000229668 -0.000978785)
(-0.00092884 0.00054551 -0.000271309)
(-0.00132232 2.97388e-05 3.74199e-05)
(-0.00722205 0.00384138 -0.00536008)
(-0.0037004 0.00421921 0.00116942)
(-0.00434995 -0.0012699 0.00230492)
(-0.00713598 0.0017521 0.000189344)
(-0.00773647 0.00129375 0.000389582)
(-0.0122573 -0.000267161 0.000208249)
(-0.00813128 0.00144896 -0.000322631)
(-0.00317316 5.63571e-05 0.000132906)
(-0.00354735 0.000301326 -0.00018748)
(-0.00274687 -0.000348475 -9.19153e-05)
(-0.00347094 -0.00032055 -0.000105683)
(-0.00613768 -0.000609976 -0.00010616)
(-0.00420056 -0.00052669 -0.000213142)
(-0.00869356 0.000786631 0.00064379)
(-0.00280589 -0.000459261 -0.000246288)
(-0.00269818 -0.000639942 -0.000879043)
(-0.00295427 -0.000848714 -0.0011143)
(-0.0144547 0.00380353 -0.00394965)
(-0.0152708 0.00128229 -0.00105888)
(-0.016792 0.000742445 -0.00144891)
(-0.0143021 0.00118152 -5.66572e-05)
(-0.00687679 0.000653664 -0.000141368)
(-0.00884738 -0.00127679 4.30863e-05)
(-0.0108344 -0.00229325 -0.000180208)
(-0.0110799 -0.00242508 -0.000203514)
(-0.011033 -0.00243599 -0.00020954)
(-0.0116514 -0.000539798 0.000240619)
(-0.0059028 -0.001043 5.14789e-05)
(-0.00185924 -0.00138543 0.000645295)
(-0.00185933 -0.00140908 0.000646741)
(-0.00184632 -0.00138969 0.000641436)
(-0.001066 -0.000978013 0.000456814)
(-0.013408 0.00135036 -0.00419069)
(-0.00206127 -0.000392686 0.000948836)
(-0.00200492 -0.000103363 0.00194123)
(-0.00237348 -0.000472711 0.00110363)
(-0.00210351 -0.000343303 0.000897266)
(-0.00192134 -0.000463909 0.000988793)
(-0.00396096 -0.000685706 0.00168798)
(-0.00351953 -0.000342623 -0.000792658)
(-0.00184028 -1.73738e-05 -0.000739744)
(-0.00382163 5.82339e-05 -0.000400014)
(-0.00238699 -7.86499e-05 -0.000500081)
(-0.00557921 -0.0003724 -0.00111151)
(-0.00185696 -0.00013145 -0.000582152)
(-0.0050821 -0.000455174 -0.00107504)
(-0.00225619 0.000216112 -0.000807347)
(-0.00231405 8.0184e-05 -0.000982014)
(-0.00230592 0.000236685 -0.000970336)
(-0.00784242 0.000945341 0.000667681)
(-0.00623669 0.000643936 0.000723787)
(-0.00781121 0.000698269 0.000606037)
(-0.00338378 0.000803083 6.91178e-05)
(-0.00458458 0.000611036 0.000378217)
(-0.0037555 0.00062694 8.62763e-05)
(-0.00832518 -0.000904878 -0.000148407)
(-0.0120056 0.00259664 0.000223261)
(-0.00281258 0.0026055 3.89734e-05)
(-0.00983235 -5.72724e-05 0.00153205)
(-0.00708805 0.000654223 0.00110959)
(-0.00908784 0.00283922 -0.000392347)
(-0.00244514 -0.00272273 -0.0014365)
(-0.00633881 -0.00422389 -0.00309168)
(-0.0158071 0.00335686 0.00510845)
(-0.0147374 0.00419685 0.00456619)
(-0.00998226 0.000439063 0.00122212)
(-0.00644158 0.000815606 0.00174036)
(-0.00936168 0.000590991 0.000784488)
(-0.0120367 -0.00128399 -7.10039e-05)
(-0.0151606 -0.000762242 0.00100132)
(-0.0136146 -0.000289955 -9.08125e-05)
(-0.00837311 0.00672952 -0.0024531)
(-0.00146763 0.000477639 0.00167567)
(-0.0011274 -0.000660243 -0.000708783)
(-0.00382657 0.0011776 -0.000864617)
(-0.0149125 -0.00186122 0.00010656)
(-0.0140193 -0.00136359 0.000105368)
(-0.0158904 0.00355862 0.000472875)
(-0.0191615 0.00466913 -1.58847e-05)
(-0.0140252 0.00238226 0.00103673)
(-0.00630046 0.00491154 -0.0010551)
(-0.0142567 0.00220692 -0.00317041)
(-0.0112097 0.00268528 -0.0003576)
(-0.0116973 0.00272084 -0.000399855)
(-0.0121481 -0.00185735 0.000865572)
(-0.00930694 -0.000519713 0.000564591)
(-0.0145945 -7.87242e-06 0.0005795)
(-0.0116891 0.0026712 7.34879e-06)
(-0.0156319 0.00378753 0.000255841)
(-0.0112609 0.00234562 -0.000362373)
(-0.0193583 0.00578911 -0.00894425)
(-0.0188154 0.00712225 -0.0106378)
(-0.0347482 0.00581166 -0.0108574)
(-0.00988501 0.0020418 -0.000359422)
(-0.00977606 0.00196508 -0.000130454)
(-0.00736104 -0.000192059 0.00044447)
(-0.00612255 0.00185713 0.00174108)
(-0.0104332 0.00226877 -0.00445439)
(-0.0089085 0.00650159 -0.00484921)
(-0.00396607 0.00331581 -0.000272178)
(-0.00396652 0.00331589 -0.000272168)
(-0.00840081 0.0066619 0.000785177)
(-0.00477644 0.00385889 -0.000342867)
(-0.00743685 0.00475859 -0.00124685)
(-0.00348703 0.0028753 -0.000313049)
(-0.00766077 0.00541207 4.68283e-05)
(-0.0129187 0.00797169 0.0044431)
(-0.0172789 0.00458603 7.58374e-05)
(-0.0103758 0.00163 -0.000117723)
(-0.0126202 0.00233751 -5.10471e-05)
(-0.0114337 0.00272326 -0.000177453)
(-0.0104567 0.00201528 -0.000114506)
(-0.0120691 0.00259637 -0.000129644)
(-0.00365481 -0.000956419 -0.000172959)
(-0.0028118 -0.000537592 -0.000264858)
(-0.00376588 -0.000532034 -0.000127425)
(-0.0173425 0.00425906 -0.00056394)
(-0.00733944 0.00139538 0.000283529)
(-0.00971362 0.00206657 9.622e-05)
(-0.00717021 0.00118986 -0.000144561)
(-0.0116446 0.00311819 0.00166609)
(-0.0128691 0.00403521 0.00213588)
(-0.00281087 -0.000581575 -7.20417e-05)
(-0.00405993 -0.00090278 -0.000249028)
(-0.00341825 -0.000618118 -0.000121591)
(-0.00778796 0.000943967 -0.000165615)
(-0.00515166 0.000772706 0.000101002)
(-0.0040309 0.000112348 -0.000216142)
(-0.00439134 -0.00147616 -0.000242313)
(-0.00419763 -0.00165832 -0.000634993)
(-0.00255001 -0.000641656 -0.000352719)
(-0.00663326 -0.0018893 -0.00141771)
(-0.00393262 -0.00106555 -0.000692277)
(-0.00927672 0.00503744 -0.00295955)
(-0.00679651 0.00560113 -0.00129426)
(-0.00929547 0.00663811 0.0014708)
(-0.0139142 0.00646177 0.00357538)
(-0.0123594 0.0068222 -0.00536982)
(-0.0157917 0.00884086 -0.00579451)
(-0.014387 0.00330883 0.00218332)
(-0.0101239 0.00869876 -0.000980814)
(-0.0124188 0.0102067 0.000494134)
(-0.00595079 -0.00135286 -0.00216702)
(-0.00971292 0.00123897 -0.000807645)
(-0.0099508 0.00586548 0.00474102)
(-0.00438565 -0.00113778 -0.000843775)
(-0.00514108 -0.000815708 -0.00191086)
(-0.0139487 -0.00354023 -0.000872726)
(-0.00592206 -0.00142562 -0.00140516)
(-0.00539606 -0.000757457 -0.0023436)
(-0.00280947 -5.48081e-05 8.13297e-05)
(-0.00345409 0.000139683 -6.80921e-05)
(-0.00217727 -0.000145278 -1.82122e-05)
(-0.00348601 0.00018669 0.000250597)
(-0.00352724 0.000178279 0.000248477)
(-0.0025476 4.96661e-06 0.000108785)
(-0.00224507 -3.24198e-05 6.23243e-05)
(-0.00398298 -0.000108552 -1.05737e-05)
(-0.003153 -9.45618e-06 0.000282473)
(-0.00340239 -0.000158801 0.000243819)
(-0.00351849 1.74679e-05 0.00014789)
(-0.0040165 -0.000410568 -0.000262623)
(-0.00245268 -0.000499122 -0.00016495)
(-0.00291969 -0.000583292 -0.000233057)
(-0.00242479 -0.00031519 -0.000207933)
(-0.00205483 -0.000209751 -9.91925e-05)
(-0.0128666 -0.0028647 6.43845e-05)
(-0.00471823 -0.000535377 -0.000310389)
(-0.0036349 -0.000620335 -0.000265975)
(-0.00377497 -0.000410583 -0.000333782)
(-0.00251218 -0.000743872 -0.000176222)
(-0.00553557 -0.00106099 -0.000311252)
(-0.00177227 0.000292745 -0.000226629)
(0.000449203 0.00122747 -0.00325495)
(-0.000670772 -0.000329937 -0.00415535)
(0.000489057 0.00202747 -0.00450585)
(-0.000995264 0.000286277 -0.00676829)
(-0.0047796 0.00327508 0.00289673)
(-0.000701913 -2.67067e-06 -1.47433e-06)
(-0.00411189 0.00446422 -3.13811e-05)
(-0.00100497 -0.000430639 0.00149753)
(-0.00255877 -0.000182463 0.000184577)
(-0.00744619 0.000789018 0.000406667)
(-0.00198639 -0.000467407 -0.000122583)
(-0.00760743 -0.00230257 0.000201794)
(-0.0117711 -0.00292352 -0.000582582)
(-0.00290253 -0.000594711 -0.000176565)
(-0.0051501 0.000504103 -0.00346757)
(-0.00445512 0.00302042 -0.003331)
(-0.00266028 0.00424129 -0.00091112)
(-0.00590174 0.00239539 -0.00349935)
(-0.00976082 0.00138265 -0.00641986)
(-0.00573698 -0.00460493 -0.00429443)
(-0.0153003 -0.00383595 0.00589324)
(-0.0145716 0.000977506 0.000558083)
(-0.0121304 0.000525014 -0.000530657)
(-0.0149954 0.00111417 0.000969721)
(-0.0201684 0.00793121 0.00454221)
(-0.0110058 0.000799088 -0.000500842)
(-0.0194012 0.0011855 -0.000254869)
(-0.0181822 0.00122169 -0.000304299)
(-0.0148495 -0.000199563 -0.000514268)
(-0.0184916 0.00105946 -0.000852481)
(-0.0201905 0.00109737 -0.000212532)
(-0.0242848 0.000575706 8.4051e-05)
(-0.011912 0.00468843 -0.00442942)
(-0.00389016 7.96681e-05 -0.00135654)
(-0.0159989 0.00191284 -0.000593328)
(-0.00538303 -0.000238935 -0.00199563)
(-0.00419551 0.00111298 -0.000699549)
(-0.0170532 0.00165479 0.00042544)
(-0.00230916 0.00102408 0.000438149)
(-0.0036177 0.00140856 9.69166e-05)
(-0.00215671 0.00092305 -0.000363749)
(-0.00839918 -0.000450032 -0.0028437)
(-0.0036428 0.00054785 -0.00042596)
(-0.00477995 0.0011492 -0.000487551)
(-0.0166391 0.00271741 -0.00189666)
(-0.017231 0.00359812 -0.00160586)
(-0.00265526 -0.000233798 -0.000208845)
(-0.00736339 -0.000463182 -0.00110296)
(-0.00303269 -0.00031528 -0.000253926)
(-0.0167344 0.00243618 -0.00176478)
(-0.00932976 0.000522452 -0.00104308)
(-0.0180879 0.00192414 -0.00109055)
(-0.0209033 0.00175157 0.000194626)
(-0.0219828 -0.00151849 0.000328594)
(-0.0116201 -0.000603255 -0.00167018)
(-0.00301807 4.12991e-05 -3.24222e-05)
(-0.00765235 -0.00167149 -0.000244194)
(-0.00426955 -0.00097333 0.000181554)
(-0.0063468 -0.00155074 -0.000295989)
(-0.0188104 -0.00134874 0.000469793)
(-0.0140702 -0.00126569 0.000416113)
(-0.018904 -0.00135925 0.000843831)
(-0.0118541 -0.00265305 -0.000140516)
(-0.0099608 -0.00220294 -0.000642965)
(-0.0124986 0.00209835 -0.00406016)
(-0.0188261 0.00208597 -0.00221124)
(-0.00101086 -0.00087513 0.000541388)