# Wall shear stress
# Time        	patch         	min           	max           
0.000000e+00	drone	(-6.643159e-01 -2.536260e-01 -2.348834e-01)	(-1.176586e-01 2.428320e-01 2.039088e-01)
0.000000e+00	blades	(-3.087557e+00 -1.779918e-01 -1.599009e-01)	(-1.128227e-01 2.370710e-01 2.151111e-01)
5.000000e-02	drone	(-5.500656e-02 -1.855198e-02 -1.698122e-02)	(5.254624e-03 2.061628e-02 1.598755e-02)
5.000000e-02	blades	(-7.604625e-02 -3.155513e-02 -1.352779e-02)	(2.021930e-03 2.367322e-02 1.243791e-02)
1.000000e-01	drone	(-4.225847e-02 -1.682286e-02 -1.424057e-02)	(4.127325e-03 2.040453e-02 1.297721e-02)
1.000000e-01	blades	(-6.250911e-02 -2.776438e-02 -1.242656e-02)	(2.674279e-03 2.145557e-02 8.960739e-03)
