/*--------------------------------*- C++ -*----------------------------------*\
  =========                 |
  \\      /  F ield         | OpenFOAM: The Open Source CFD Toolbox
   \\    /   O peration     | Website:  https://openfoam.org
    \\  /    A nd           | Version:  10
     \\/     M anipulation  |
\*---------------------------------------------------------------------------*/
FoamFile
{
    format      ascii;
    class       volScalarField;
    location    "0.1";
    object      k;
}
// * * * * * * * * * * * * * * * * * * * * * * * * * * * * * * * * * * * * * //

dimensions      [0 2 -2 0 0 0 0];

internalField   nonuniform List<scalar> 
115408
(
0.0948383
0.0951569
0.0950051
0.0951001
0.0950648
0.0952383
0.0951548
0.0949672
0.0952475
0.0950098
0.094823
0.0950877
0.0951943
0.0952797
0.0950985
0.0949648
0.0950184
0.0953052
0.0951726
0.0948646
0.0948425
0.0948279
0.0952025
0.094986
0.0948865
0.0948188
0.0948325
0.0950242
0.0951196
0.0952247
0.0948294
0.0948227
0.0952431
0.0951402
0.0950623
0.0953235
0.0969108
0.0993987
0.0982517
0.0991733
0.0959281
0.0953684
0.096235
0.0997202
0.10307
0.100213
0.095597
0.0957172
0.0953904
0.095497
0.0958687
0.0955931
0.0951107
0.0956711
0.0959569
0.0961599
0.0955025
0.0963319
0.100699
0.0976277
0.0973033
0.0986006
0.101019
0.09666
0.095615
0.0996706
0.0982476
0.0956182
0.0955632
0.0954676
0.0995665
0.0989764
0.0959709
0.0999632
0.0973147
0.0958357
0.094968
0.0949827
0.0980987
0.0989401
0.0983999
0.0960953
0.095476
0.0950657
0.101516
0.0962382
0.100504
0.0990052
0.0983101
0.100826
0.0954079
0.0951658
0.0953296
0.095807
0.0973461
0.0959283
0.0976939
0.103679
0.0984205
0.0958274
0.0969457
0.0981508
0.0960887
0.0962346
0.0988915
0.0973942
0.0961195
0.0960878
0.0985492
0.0970505
0.0954027
0.0968363
0.0983937
0.0961814
0.0957266
0.0964996
0.0961036
0.0956472
0.0959792
0.0978928
0.0967056
0.0953202
0.0972273
0.098593
0.0968368
0.0970378
0.0962951
0.0983182
0.0971508
0.0959287
0.0988011
0.0966678
0.0953703
0.0966813
0.0985354
0.097233
0.0981122
0.0962875
0.0975369
0.101567
0.0969023
0.0999734
0.0976783
0.097856
0.0973013
0.0958677
0.0965318
0.0950843
0.0950568
0.0972651
0.0977692
0.0960458
0.0990297
0.0955482
0.0953681
0.0968242
0.096975
0.0976058
0.0988415
0.0984377
0.0982082
0.0972215
0.0956716
0.0955288
0.0964805
0.0981914
0.0970425
0.101993
0.0999985
0.0978456
0.0962744
0.096176
0.0980863
0.0974136
0.0951921
0.0970896
0.0967694
0.0979868
0.0961232
0.0981507
0.098753
0.0960849
0.0952923
0.0962627
0.0981208
0.0973652
0.094864
0.0973833
0.0977792
0.0973092
0.0965916
0.0980615
0.0962514
0.0957213
0.0949487
0.0962556
0.0983626
0.0971593
0.0947449
0.0970666
0.0963754
0.0968761
0.0971176
0.0977181
0.0966298
0.0960354
0.0951062
0.0964253
0.0978398
0.097309
0.0946399
0.097515
0.0955612
0.0957281
0.0968708
0.101406
0.105775
0.0964169
0.0987015
0.0976896
0.095341
0.0951474
0.09845
0.0986194
0.105004
0.100163
0.0994366
0.0964532
0.0981463
0.0989929
0.099118
0.0979065
0.0992518
0.0979537
0.0966466
0.0985155
0.0975817
0.0447285
0.092898
0.0961597
0.0962031
0.0955236
0.095606
0.0976728
0.0964445
0.0964761
0.0681184
0.0741816
0.0928029
0.0963691
0.0953994
0.0948817
0.0956186
0.097957
0.0964218
0.0965754
0.0838106
0.0450494
0.042352
0.079615
0.0930784
0.0958601
0.0953762
0.0948779
0.095559
0.0978964
0.0964192
0.0963534
0.0763971
0.0404371
0.0411748
0.0755887
0.0925099
0.096142
0.0953479
0.0949234
0.0958169
0.0980231
0.0964179
0.0964519
0.0590602
0.0527721
0.0916105
0.0961748
0.0982071
0.0973407
0.0887688
0.0407965
0.0943623
0.0908319
0.0490625
0.0861578
0.0859699
0.0883184
0.102383
0.0983762
0.0859367
0.0885793
0.0953533
0.0958426
0.0957144
0.0953246
0.0966221
0.0977427
0.0869235
0.0872456
0.0957128
0.0949263
0.0949652
0.0951535
0.0964707
0.0977126
0.0870924
0.0863362
0.0955229
0.0949182
0.0948798
0.0951615
0.0964934
0.0977195
0.0871407
0.0872277
0.0956857
0.0949501
0.0949615
0.0953423
0.0965161
0.0976015
0.0862244
0.0887423
0.0956711
0.0975246
0.0982431
0.0880051
0.094733
0.0804844
0.0912007
0.0972713
0.0959594
0.0971938
0.0973522
0.092832
0.0835995
0.0966247
0.0958199
0.0951309
0.0953542
0.096964
0.0963736
0.0895045
0.0810803
0.0965358
0.0955744
0.0948858
0.0953409
0.0969631
0.0961838
0.0896406
0.0837241
0.0964947
0.0955878
0.0948752
0.095457
0.0969333
0.0963214
0.0893033
0.0823424
0.0964768
0.0955789
0.0948919
0.0956379
0.0971659
0.0969339
0.0911018
0.0799544
0.0962855
0.0970922
0.0970946
0.0941066
0.0988402
0.0971724
0.0832268
0.054294
0.0986008
0.0993787
0.100666
0.107053
0.0961246
0.0961841
0.0976674
0.0974171
0.0957285
0.0994952
0.0924182
0.0911276
0.0889125
0.107752
0.106731
0.0958975
0.0959429
0.099524
0.0977377
0.0943187
0.0908231
0.0876822
0.0897032
0.0906868
0.106604
0.106435
0.0958152
0.0958908
0.0998804
0.0969186
0.0960105
0.0956444
0.0864554
0.0896312
0.0896246
0.101873
0.105685
0.0957913
0.0959266
0.0996459
0.0976929
0.0946803
0.0915928
0.0894008
0.0900002
0.0899855
0.104793
0.106493
0.0957735
0.095996
0.0972661
0.0970413
0.0948365
0.0891553
0.0916122
0.090867
0.0895114
0.105923
0.106104
0.0958606
0.0967307
0.0970223
0.0972751
0.0950556
0.0972211
0.100075
0.0983415
0.0982067
0.101056
0.0962474
0.0967289
0.0966083
0.102437
0.0991115
0.0964916
0.0960999
0.0959017
0.0954579
0.0991057
0.0984448
0.0961848
0.0951201
0.097997
0.0991281
0.0968197
0.0957651
0.0954899
0.0954328
0.0957288
0.0982037
0.0973571
0.0959158
0.0950248
0.0973063
0.0974604
0.0963562
0.0953791
0.0953036
0.0952891
0.0955529
0.0975919
0.0971491
0.0958912
0.0950009
0.0971011
0.0971898
0.0962492
0.0953183
0.0952773
0.0953079
0.0954664
0.0975604
0.0971053
0.0958496
0.0950276
0.0971374
0.0973882
0.0963602
0.0953573
0.0953204
0.0953013
0.095589
0.0975288
0.0972874
0.0959075
0.0951189
0.0978642
0.0987112
0.0967655
0.0956827
0.0954329
0.0954516
0.0963175
0.0989331
0.0981179
0.0960293
0.0956758
0.0984428
0.100481
0.0966486
0.0963966
0.0957196
0.0963439
0.100118
0.0978325
0.0966554
0.0953632
0.0953204
0.0948604
0.0948271
0.0948359
0.094847
0.0949734
0.0951406
0.0949664
0.0952024
0.0951019
0.0948738
0.0948533
0.0948145
0.0948247
0.0948617
0.09493
0.0950265
0.0949797
0.0950924
0.0950717
0.0948507
0.0948421
0.0948114
0.0948178
0.0948858
0.0949407
0.0950198
0.094961
0.0951037
0.0950782
0.0948477
0.0948427
0.0948106
0.0948158
0.0948777
0.0949433
0.0950073
0.0949861
0.0951185
0.0950714
0.094852
0.094842
0.0948121
0.0948237
0.0948593
0.0949357
0.0950278
0.0949454
0.0951852
0.0950957
0.0948608
0.094854
0.0948202
0.0948251
0.0948354
0.0949805
0.0950972
0.0950312
0.0954721
0.0953858
0.0948368
0.0948377
0.0948226
0.0948182
0.0949465
0.094852
0.0948408
0.0516783
0.0575601
0.0837914
0.0971544
0.096852
0.086023
0.0470255
0.0964608
0.0976611
0.0968329
0.0468017
0.0434871
0.0954344
0.0969878
0.0966144
0.0543747
0.0446957
0.0690516
0.0989633
0.0968334
0.094802
0.0615435
0.0831818
0.0812864
0.0937239
0.0963543
0.0968269
0.096359
0.0880046
0.044993
0.092512
0.0630748
0.0966644
0.0972803
0.0964651
0.0458024
0.0440635
0.0661531
0.0653235
0.0957758
0.0975667
0.0958855
0.0444909
0.0775385
0.0672056
0.0833613
0.0951544
0.0965573
0.0952407
0.0860323
0.0931723
0.0873565
0.0925799
0.0963764
0.0972384
0.0963953
0.092506
0.0629783
0.0892824
0.0621879
0.0963121
0.097749
0.0963172
0.0666695
0.0656714
0.0621479
0.0533392
0.0959762
0.0970931
0.0962472
0.0674733
0.0848728
0.0564206
0.0826065
0.0951687
0.0968508
0.0954454
0.0879336
0.0924525
0.0871345
0.0926873
0.0960032
0.0981529
0.096966
0.0877551
0.0594263
0.0778489
0.0441915
0.0961189
0.0968427
0.0957616
0.0578763
0.0518229
0.0962068
0.0966857
0.0978379
0.0542094
0.0766665
0.0651681
0.094807
0.0982873
0.0945249
0.0856005
0.0929447
0.0690657
0.0930872
0.097664
0.0952654
0.09542
0.0771719
0.052956
0.0957983
0.098256
0.096595
0.0964651
0.0984845
0.0952229
0.0639639
0.0428971
0.0984056
0.0986556
0.0996574
0.0686331
0.0919826
0.0447329
0.0930031
0.0951299
0.0953867
0.0951227
0.048264
0.0568285
0.0967251
0.0984067
0.0964684
0.0926243
0.0986191
0.0956208
0.0384097
0.0446711
0.106748
0.0436702
0.049001
0.0973605
0.0983539
0.0987023
0.096613
0.0723548
0.0890011
0.0897895
0.0964292
0.0970871
0.0971637
0.0653936
0.0888516
0.0867694
0.0963319
0.0974812
0.0983924
0.0911483
0.0840567
0.0952654
0.0981718
0.0956895
0.0487521
0.0893392
0.0994049
0.0991472
0.0885946
0.0809602
0.0912084
0.0369082
0.0438285
0.0817493
0.0953644
0.0877518
0.085507
0.0965268
0.0700368
0.0887163
0.0687012
0.0408445
0.0620198
0.0851237
0.0706631
0.0796462
0.0965784
0.0836335
0.0927608
0.0934439
0.0938885
0.0854004
0.0964027
0.0830272
0.0959098
0.0694756
0.0966205
0.0794263
0.0890123
0.0891794
0.0836177
0.0450941
0.0441919
0.0408192
0.0658828
0.0422415
0.0731571
0.0795714
0.0788871
0.0798596
0.0825502
0.0835375
0.0938978
0.0932335
0.0939074
0.0830392
0.0957943
0.0846469
0.0958326
0.0795499
0.0965042
0.0771665
0.0891644
0.0892267
0.0460094
0.0792728
0.0432844
0.0409431
0.0419883
0.0414372
0.0739704
0.0399664
0.0710209
0.0798354
0.0780401
0.0796935
0.0830152
0.079129
0.0938937
0.093016
0.0939427
0.0845959
0.0957054
0.0828583
0.0954358
0.0746297
0.0965656
0.0617168
0.0892169
0.0881583
0.0421839
0.0586715
0.0673504
0.0493474
0.0793834
0.0549953
0.0804994
0.0814276
0.0952297
0.0937676
0.0924645
0.0937785
0.0831493
0.0957496
0.0849428
0.0953329
0.0631819
0.0881361
0.0438528
0.0879707
0.088923
0.0437015
0.0475948
0.079923
0.0828822
0.0948809
0.0935214
0.0885557
0.094803
0.0847514
0.095485
0.0417626
0.0958504
0.0525716
0.0896745
0.090766
0.0451367
0.0391741
0.0898453
0.0838269
0.0946332
0.0805546
0.0564405
0.0854735
0.0829793
0.0818764
0.0854093
0.0913037
0.0914129
0.088941
0.090013
0.0858234
0.0837473
0.0786478
0.0742299
0.0840919
0.0956449
0.0947103
0.0516928
0.0829822
0.0956544
0.0836661
0.0962356
0.0962368
0.0491054
0.0389192
0.0988024
0.0959666
0.0877506
0.080592
0.0978127
0.0898906
0.103603
0.0824791
0.087781
0.0845926
0.0999912
0.0980275
0.0995531
0.0975131
0.0981855
0.097584
0.0991635
0.0866968
0.0895086
0.0879247
0.107217
0.10266
0.0763538
0.0941636
0.0951954
0.0874756
0.0950456
0.082978
0.0950149
0.0862827
0.0950092
0.0994072
0.0978138
0.0992365
0.09728
0.0992634
0.0974162
0.0995318
0.0870844
0.0874484
0.0874626
0.101339
0.0986714
0.0953126
0.101225
0.095086
0.0864168
0.095034
0.0866765
0.0950532
0.0877278
0.0950271
0.0992716
0.0977821
0.0992686
0.0973448
0.0994717
0.0973498
0.0994944
0.0871311
0.0872138
0.0870893
0.0981383
0.0986721
0.101495
0.100549
0.0950408
0.0866751
0.0950216
0.0877865
0.0950361
0.0876746
0.0950184
0.0993496
0.097837
0.0996859
0.0972041
0.0993881
0.0971606
0.0987103
0.086301
0.0872414
0.0893396
0.100822
0.10724
0.0984089
0.060666
0.0950673
0.0888462
0.0950608
0.0873714
0.0950438
0.0764682
0.0950328
0.0995997
0.0971472
0.099233
0.0968314
0.0986515
0.0962725
0.0969666
0.0871209
0.0895729
0.0912853
0.107233
0.0608463
0.0950553
0.0793121
0.0950629
0.0986596
0.0949569
0.0912411
0.0961295
0.0962469
0.0968755
0.095911
0.0910455
0.0923038
0.0891348
0.0871353
0.0666059
0.0728585
0.0747321
0.0719942
0.0940004
0.0510663
0.0845964
0.0924057
0.0745792
0.0404869
0.0984523
0.086179
0.0980263
0.089181
0.0376705
0.0370358
0.102253
0.0857499
0.0934164
0.0950301
0.0850299
0.0917741
0.0878455
0.091731
0.0917374
0.0934452
0.0852087
0.0722492
0.0889162
0.0935798
0.0900509
0.0936458
0.0846834
0.0945413
0.085891
0.0929646
0.0871264
0.0935783
0.0674333
0.091677
0.089814
0.0719754
0.0717541
0.0911301
0.0908396
0.0762908
0.0864964
0.0730461
0.0765078
0.089387
0.0921375
0.0896888
0.0933813
0.0899562
0.0947259
0.0856217
0.0984001
0.084897
0.0946094
0.0683269
0.0968364
0.059151
0.0716109
0.0713549
0.0609062
0.0749732
0.0763962
0.0785635
0.0783758
0.0747405
0.0721804
0.0819259
0.086843
0.0935976
0.0835014
0.0949463
0.0892481
0.0984908
0.0846056
0.0967769
0.0863303
0.0967744
0.0590562
0.0952597
0.0683954
0.061141
0.074974
0.0674199
0.0758637
0.0783244
0.0743676
0.0775418
0.0788689
0.0822442
0.0791137
0.0833229
0.0796072
0.0855267
0.0944751
0.0908589
0.0948285
0.0860681
0.0936374
0.0842628
0.094639
0.0698899
0.084845
0.0878044
0.0716636
0.0737934
0.0920137
0.0909703
0.0762558
0.0809387
0.0915055
0.0973378
0.076818
0.0659869
0.0865731
0.0936176
0.0930733
0.0939749
0.0928864
0.0933557
0.0843348
0.0946104
0.0851655
0.0849537
0.087909
0.0904684
0.0868138
0.0925045
0.0896133
0.0891728
0.0841924
0.0905126
0.0965
0.0866068
0.0888609
0.0649517
0.0924115
0.0921675
0.0953599
0.0894427
0.0945423
0.0843557
0.0953404
0.0959834
0.0918361
0.0862793
0.0997148
0.0819051
0.0921023
0.0832305
0.0955609
0.0817166
0.0905598
0.087475
0.0948282
0.0938203
0.0862339
0.0486914
0.0969076
0.093424
0.0962615
0.0952378
0.0480173
0.0510119
0.0993892
0.0946476
0.0989717
0.0955608
0.0983611
0.0959005
0.0923812
0.100842
0.100094
0.0976601
0.10055
0.0918883
0.0943565
0.0995973
0.0999733
0.0990258
0.0997508
0.0915762
0.0827897
0.0998604
0.0939246
0.0984271
0.0996417
0.0916757
0.0885905
0.0843846
0.0978014
0.0994613
0.097778
0.0994127
0.0934053
0.0887224
0.0856977
0.0983774
0.0989241
0.0980259
0.0980775
0.0862733
0.0912555
0.0958292
0.097661
0.10113
0.0975054
0.0991346
0.0864056
0.0955831
0.0836304
0.0974561
0.0981221
0.0974356
0.0984834
0.0852273
0.0868182
0.0884425
0.0984919
0.0971672
0.0982975
0.0964454
0.0932862
0.0894051
0.09144
0.0969312
0.0990041
0.0975037
0.0983567
0.0832808
0.0928814
0.0854461
0.0973189
0.0983281
0.0973519
0.0978267
0.0884375
0.0865512
0.0874069
0.0981996
0.0964809
0.0983253
0.0970838
0.091243
0.0895106
0.0924037
0.0974363
0.0982504
0.097526
0.0983195
0.0857715
0.0908232
0.0913134
0.0975529
0.098609
0.0974037
0.0986172
0.0872934
0.0918241
0.0938236
0.097757
0.0978446
0.0979944
0.0984026
0.0930889
0.0914353
0.0983567
0.0972017
0.0985871
0.0974291
0.100479
0.0910048
0.0953465
0.0853053
0.0970978
0.0991241
0.096622
0.0991501
0.0930899
0.0892952
0.0812986
0.0983118
0.0986565
0.0988052
0.0985708
0.0931694
0.0877595
0.0949337
0.097807
0.0991194
0.0986861
0.0932357
0.0949747
0.0977982
0.094958
0.0828879
0.09679
0.0950542
0.0976373
0.0948951
0.0828409
0.09491
0.0858277
0.0978746
0.0949989
0.0981006
0.0949083
0.0859217
0.0949088
0.0848632
0.0971396
0.0951096
0.0988428
0.0949078
0.0834702
0.0950086
0.0783264
0.0968447
0.0950653
0.0968146
0.095013
0.0786317
0.096826
0.0575364
0.0958417
0.0957913
0.0959378
0.0973674
0.0565406
0.0971802
0.061421
0.0959794
0.0964987
0.0967342
0.0967324
0.0969687
0.0578158
0.0435492
0.0725978
0.0549393
0.0715623
0.0966768
0.0964381
0.0966567
0.0964413
0.0965032
0.0963589
0.0962039
0.0531682
0.0782906
0.0577833
0.0429053
0.0402598
0.0387787
0.0485298
0.0847016
0.078883
0.0852764
0.0966334
0.0964385
0.0966677
0.096348
0.0962169
0.0963686
0.0962912
0.0571488
0.0832529
0.0575552
0.0422143
0.0437819
0.0418705
0.05328
0.0417747
0.0521342
0.0862751
0.0788239
0.0859967
0.0966104
0.0964655
0.0969037
0.0964192
0.0964333
0.0965355
0.0975488
0.0575302
0.0683902
0.0420076
0.0424962
0.0402408
0.0851402
0.0701543
0.0717956
0.0970925
0.096671
0.0975697
0.0965306
0.0979306
0.0962917
0.0977975
0.0387798
0.0472154
0.0742872
0.0439446
0.0703989
0.0974145
0.0953594
0.0951141
0.0973843
0.0968112
0.0949875
0.0908084
0.0534529
0.0835939
0.0908742
0.0948417
0.0781268
0.0594581
0.0915439
0.0396961
0.0646868
0.092562
0.0709755
0.0511616
0.0603607
0.0624703
0.0886369
0.0940821
0.0856611
0.0863892
0.0848316
0.0849418
0.0979919
0.0954183
0.0817162
0.0830318
0.0963596
0.097111
0.0939321
0.087107
0.0850886
0.0850943
0.09756
0.0951334
0.0822249
0.0829203
0.0960208
0.0968096
0.094458
0.0870795
0.0851997
0.0851376
0.0973528
0.0947918
0.0833753
0.0829125
0.0959689
0.096463
0.094892
0.0865531
0.0852188
0.0849982
0.0976617
0.0949684
0.0822623
0.0828603
0.0961887
0.0967058
0.0943876
0.0858631
0.0852075
0.0849573
0.098532
0.0953485
0.0815041
0.0829019
0.096938
0.09735
0.0947326
0.0367849
0.0884827
0.0878077
0.0369677
0.088599
0.0797447
0.095013
0.0958056
0.0782722
0.048153
0.0792884
0.0908386
0.0534382
0.0819586
0.0702838
0.0550316
0.0793488
0.0447531
0.0476772
0.0736728
0.0671454
0.0942418
0.0762752
0.0921951
0.0889659
0.0752951
0.0779328
0.0951765
0.0977976
0.0971668
0.0958756
0.100847
0.0989843
0.096411
0.0959534
0.0695301
0.0833442
0.0969574
0.0996688
0.0926895
0.09729
0.0974887
0.0970117
0.0965252
0.0956361
0.0969748
0.0979801
0.0779766
0.0420524
0.0909985
0.0895981
0.0396693
0.079981
0.0889938
0.0406203
0.0491596
0.0561282
0.0963307
0.0827992
0.096103
0.0977475
0.0934364
0.0987279
0.0933338
0.0963575
0.0963416
0.0963481
0.0975005
0.104598
0.0968143
0.095334
0.0727877
0.0373347
0.0892472
0.0902399
0.0349628
0.0681209
0.0924854
0.0361985
0.0395031
0.096146
0.0836484
0.0955254
0.099646
0.0933011
0.100344
0.0944564
0.0962674
0.0963002
0.0962898
0.0966055
0.0954031
0.0967841
0.0950337
0.072411
0.0365305
0.0894088
0.0920758
0.0331062
0.0719574
0.0919665
0.0340248
0.0349649
0.0956141
0.0829377
0.0955617
0.0936715
0.0942095
0.10088
0.0944404
0.0963172
0.0971011
0.0972117
0.0974357
0.0964646
0.0969672
0.0957183
0.0759588
0.0354587
0.0897876
0.0925977
0.0346359
0.0725973
0.0896894
0.0432985
0.0422054
0.0959154
0.0815209
0.0960223
0.0985466
0.0937045
0.0996096
0.0938069
0.0971272
0.096915
0.0969554
0.0964613
0.0950749
0.0963945
0.0963103
0.0805426
0.039823
0.0925942
0.0887332
0.0427006
0.0785956
0.0890122
0.042111
0.065652
0.0563671
0.0963518
0.0970348
0.0931783
0.0442582
0.0517451
0.0666785
0.0426717
0.0486215
0.032724
0.0527069
0.0965578
0.0776153
0.0966356
0.0959802
0.0975659
0.100645
0.0850473
0.0400763
0.0899179
0.0645102
0.0893064
0.0771142
0.0662714
0.0741117
0.0880857
0.0766161
0.094571
0.0538248
0.0960683
0.0927187
0.0976768
0.0961324
0.0974018
0.0980702
0.0647753
0.100257
0.0944885
0.0972124
0.096929
0.0991821
0.0983413
0.0951981
0.0957056
0.0984176
0.0962511
0.101926
0.0985377
0.095068
0.0958454
0.0882145
0.0991528
0.098314
0.0993538
0.0995186
0.0959041
0.0905053
0.0944903
0.099073
0.0989731
0.0978872
0.0951726
0.0896359
0.0959704
0.0906438
0.0989367
0.0982896
0.0987842
0.0979686
0.0877276
0.083409
0.0875918
0.0979363
0.0858051
0.0798914
0.0947525
0.0922946
0.0900657
0.0887046
0.0975862
0.0845572
0.0956597
0.09851
0.0948347
0.0896908
0.095573
0.0976798
0.0962468
0.0975836
0.0959054
0.0903474
0.0954905
0.0916451
0.0987351
0.0977803
0.0987159
0.097922
0.0878797
0.0857519
0.0870565
0.0941252
0.0861758
0.0880894
0.0942695
0.0861462
0.0856994
0.089654
0.0956512
0.0848572
0.0861774
0.0956085
0.0917713
0.0902761
0.094974
0.097471
0.0957031
0.0975592
0.0962491
0.0910489
0.0952526
0.0954974
0.0988739
0.098199
0.0991496
0.0995194
0.0953883
0.0843747
0.0907621
0.100603
0.0869527
0.0928961
0.099339
0.0951887
0.0859237
0.0920065
0.100004
0.0903516
0.0918934
0.0986732
0.0944241
0.0905252
0.0955321
0.0975934
0.0950784
0.0988056
0.0987534
0.0950002
0.0954282
0.0956923
0.0989211
0.101325
0.0976085
0.0974552
0.0956242
0.0990256
0.0948673
0.101231
0.0981989
0.0986461
0.0965489
0.0924502
0.0957658
0.0955178
0.100342
0.100662
0.0967125
0.0958596
0.0895365
0.0991901
0.0970115
0.0998375
0.0997743
0.0965217
0.0959881
0.0952728
0.0986768
0.100918
0.0985761
0.0962633
0.0960785
0.0977932
0.0985064
0.0979629
0.0959113
0.0948646
0.0966754
0.0952646
0.0983007
0.0970782
0.0985579
0.0951853
0.0949163
0.0956209
0.0953977
0.0808487
0.0875488
0.0764218
0.0930266
0.0534196
0.0868899
0.0373417
0.0856966
0.047727
0.0875094
0.0933128
0.0816642
0.0641853
0.0934451
0.0873252
0.0569112
0.0865361
0.0889484
0.0420182
0.0581229
0.0862237
0.0864141
0.0550375
0.085939
0.0322738
0.0883792
0.0923262
0.0864439
0.0902682
0.0900368
0.0854821
0.0859217
0.0936348
0.0395145
0.0415703
0.0922466
0.0864419
0.0871347
0.0890898
0.0413658
0.0867642
0.086761
0.0866802
0.0899899
0.0817561
0.0926175
0.0393914
0.0879905
0.0873421
0.0660126
0.0853356
0.0890797
0.0416152
0.0863551
0.094403
0.0423436
0.0562302
0.0932991
0.086464
0.041714
0.0869587
0.0864218
0.0667317
0.0587865
0.0879512
0.0864505
0.044912
0.0801125
0.093047
0.0829725
0.0691502
0.0853295
0.0944545
0.0848653
0.0903495
0.0973946
0.0743888
0.0905768
0.0955894
0.0951417
0.0839306
0.0791647
0.0933994
0.0659442
0.0880528
0.0875442
0.0961943
0.078046
0.0827413
0.0879092
0.059169
0.061757
0.0862365
0.0897824
0.0778229
0.0904626
0.097205
0.0893639
0.0796087
0.0965766
0.0941667
0.0774083
0.0862825
0.0897061
0.0626061
0.078521
0.0893065
0.0879503
0.0770459
0.0859674
0.0942292
0.0417834
0.0635426
0.0858857
0.0942692
0.0473184
0.085919
0.0888716
0.0416042
0.055745
0.0861869
0.0900681
0.0472589
0.0868764
0.0940943
0.0648778
0.0679185
0.0936587
0.0873585
0.0466047
0.0864369
0.089887
0.0559199
0.0675929
0.0898262
0.0865902
0.0475006
0.0874607
0.0949067
0.0551094
0.0592598
0.0870161
0.0953284
0.0714794
0.0863875
0.0866761
0.0574099
0.0831705
0.086504
0.087196
0.0722232
0.0876734
0.0957436
0.0603769
0.0724142
0.0954446
0.087725
0.0724605
0.0863121
0.0874704
0.0832395
0.0708089
0.0873681
0.0862851
0.0730567
0.0938371
0.097478
0.079156
0.0925775
0.0938187
0.0974528
0.0793862
0.0878678
0.0902087
0.0771756
0.0630411
0.0878138
0.0900352
0.0783418
0.0940037
0.0973591
0.092865
0.0759002
0.0975682
0.0901185
0.0793024
0.0879998
0.0897264
0.0629791
0.0721447
0.0899453
0.086286
0.0781811
0.0874611
0.0946654
0.0681698
0.0663713
0.0875489
0.0945
0.0675341
0.086385
0.0898089
0.0677728
0.0643568
0.0863896
0.0897036
0.0669498
0.0873417
0.094466
0.0662787
0.0470151
0.0944975
0.0865794
0.0665357
0.0864396
0.0899903
0.063629
0.0460334
0.0896601
0.0862904
0.0647856
0.0876536
0.0953655
0.0725952
0.0663063
0.0877535
0.0951111
0.0734595
0.0862676
0.0875954
0.070877
0.0846686
0.0863054
0.0876264
0.0731152
0.0876248
0.094635
0.0656584
0.0683721
0.094962
0.0875474
0.0742544
0.0862153
0.0874857
0.0838207
0.0698484
0.0875781
0.0862684
0.0746349
0.0875915
0.0961477
0.0747394
0.0857196
0.0787634
0.0937514
0.0596541
0.08629
0.089331
0.068841
0.0458707
0.0830318
0.0877645
0.0569848
0.0876715
0.093742
0.084878
0.0491656
0.093634
0.0874653
0.0558296
0.08608
0.0865265
0.04653
0.0427585
0.0891604
0.0862785
0.0556671
0.0858942
0.0941267
0.0459083
0.0453738
0.0856568
0.0928682
0.0407351
0.0866467
0.0884736
0.0447093
0.0414689
0.0859566
0.0876078
0.0407543
0.0870299
0.0924207
0.045567
0.0917343
0.0845719
0.0388945
0.0888843
0.0867119
0.0400212
0.0878352
0.0867824
0.0379075
0.0861178
0.0941541
0.0660591
0.0413969
0.0869283
0.0935759
0.0514013
0.0862238
0.0868041
0.0679132
0.0726833
0.0864858
0.0862083
0.0537105
0.0862985
0.093433
0.041265
0.0402367
0.0937172
0.0858354
0.0511508
0.0863795
0.0918273
0.0726275
0.0410593
0.0885291
0.0862831
0.053235
0.0932362
0.0960409
0.0819434
0.0829716
0.0978793
0.092731
0.0863291
0.0862141
0.0931066
0.0450039
0.065184
0.0873133
0.0912522
0.0440594
0.0887509
0.0874042
0.0463929
0.0870967
0.0873541
0.0398814
0.0878072
0.0926151
0.0579441
0.0913673
0.0822703
0.0419259
0.090268
0.0880899
0.0848495
0.0826735
0.0354747
0.0885266
0.0935121
0.0854378
0.0894402
0.0931342
0.0853379
0.0866209
0.0888444
0.089725
0.0948571
0.0916358
0.0902402
0.093293
0.0913774
0.0896946
0.0917821
0.0849745
0.0925953
0.0407765
0.0862304
0.0894569
0.0856795
0.0893518
0.0403424
0.0513841
0.0876816
0.0877338
0.0858783
0.0922219
0.0908536
0.0921077
0.0868437
0.0835244
0.0495411
0.0860419
0.0942231
0.0854697
0.0941517
0.0859487
0.05722
0.0802546
0.0932969
0.0805465
0.0850988
0.0920885
0.0562945
0.0722972
0.0924829
0.0858182
0.0719599
0.0827096
0.0921134
0.0450485
0.0840098
0.0923127
0.0900593
0.0889958
0.0861013
0.0881415
0.0829283
0.0921259
0.045164
0.0925215
0.0843796
0.0902231
0.0864552
0.0881007
0.0863771
0.0891963
0.0937
0.0895151
0.0910901
0.0913308
0.0914459
0.0912868
0.0904449
0.0889924
0.0908544
0.0909608
0.0886751
0.0911925
0.0909755
0.0902924
0.0915924
0.0927193
0.092151
0.0924387
0.0922197
0.0940573
0.0822935
0.0946982
0.0855166
0.0925661
0.0926458
0.0921401
0.0916394
0.0938757
0.0853415
0.0848161
0.0924241
0.090467
0.0724373
0.0860483
0.0913718
0.0914406
0.0912744
0.0787884
0.0930323
0.0886636
0.0823325
0.094783
0.0800251
0.0839537
0.0867917
0.0625327
0.0834616
0.086011
0.0805457
0.0882796
0.0893275
0.0636156
0.0891733
0.0899609
0.0688179
0.0857986
0.0914563
0.0680795
0.093468
0.0908575
0.0632685
0.0832523
0.0937349
0.0701934
0.0901576
0.0911516
0.0861245
0.0888902
0.0713284
0.0726038
0.0776527
0.0721814
0.0491968
0.0604064
0.0804775
0.0520812
0.0654268
0.0824037
0.0818899
0.0511658
0.0579542
0.0881384
0.0943128
0.0436355
0.0589401
0.0937024
0.088411
0.0944859
0.0607416
0.0449816
0.0458763
0.03935
0.0631485
0.0485332
0.0454135
0.0424927
0.042854
0.0503286
0.0416653
0.0523874
0.0417562
0.0736477
0.0803335
0.0777575
0.0790226
0.0778978
0.0586041
0.0818321
0.0729306
0.0806349
0.0867879
0.0814675
0.0811447
0.0784078
0.0729358
0.101146
0.0761842
0.0787487
0.0998171
0.0777576
0.0642916
0.0820082
0.0767352
0.0819128
0.0541776
0.0655201
0.0763044
0.0817746
0.0820244
0.0668386
0.0657804
0.0924772
0.0448958
0.0891912
0.0609043
0.0909249
0.0367954
0.0536308
0.0466598
0.0660665
0.0904527
0.0891875
0.0372587
0.0906935
0.0659724
0.0369138
0.0541498
0.0545328
0.0438829
0.0438481
0.0571324
0.0787657
0.0584363
0.0557413
0.0445076
0.0574969
0.0552164
0.0374999
0.0435136
0.0420711
0.0409815
0.0384869
0.041758
0.0412922
0.0729216
0.0515132
0.0397882
0.0527946
0.0499673
0.0731008
0.0546874
0.0531011
0.0789709
0.0861356
0.0854663
0.0797084
0.0854773
0.0796958
0.0802164
0.0916154
0.0792855
0.0667999
0.0818625
0.0791117
0.0817329
0.0669523
0.0667548
0.0784254
0.0817518
0.0816968
0.0624245
0.0661213
0.0904702
0.0373319
0.0891906
0.0659713
0.0904629
0.0371858
0.0545299
0.0545995
0.0661722
0.0910228
0.0891959
0.0364961
0.0905062
0.0656308
0.0371632
0.0545317
0.0529395
0.0547843
0.0445157
0.0569113
0.0831705
0.0561885
0.0576661
0.044466
0.054648
0.0569152
0.0418895
0.0406035
0.0413683
0.043725
0.0414682
0.0405134
0.0403305
0.0552278
0.0723359
0.054786
0.0414738
0.043852
0.0517891
0.0728356
0.0479459
0.0548361
0.0787801
0.0851207
0.0857025
0.0802062
0.0961728
0.0792746
0.0799974
0.0968651
0.078743
0.0554837
0.0820361
0.0700061
0.0827443
0.0615912
0.0531724
0.0691444
0.0803255
0.0825165
0.0469691
0.0608365
0.0913648
0.0363122
0.088503
0.0654465
0.0930872
0.0488048
0.0527091
0.0602984
0.0949
0.0884543
0.0941022
0.0568505
0.0475964
0.042506
0.0550132
0.043458
0.0671335
0.0418355
0.0455349
0.0382296
0.0461205
0.0459927
0.0616253
0.0396667
0.0418626
0.0593533
0.0403946
0.0678276
0.0710931
0.0745429
0.0802873
0.0786586
0.0779249
0.0825617
0.0760339
0.0797445
0.0945238
0.0783104
0.0763963
0.0971643
0.0776208
0.0432333
0.0802949
0.0528942
0.0799016
0.0475985
0.0424005
0.0533507
0.0842355
0.0825536
0.042383
0.0502353
0.0953025
0.087328
0.0578792
0.0940969
0.0398288
0.044218
0.0488811
0.0921431
0.0874069
0.0915288
0.0501348
0.0393545
0.0355576
0.0464992
0.0369826
0.0732343
0.0848948
0.077644
0.0728863
0.0776301
0.0461026
0.0646793
0.0652591
0.0813304
0.0706649
0.0764601
0.0694659
0.0772369
0.0757669
0.0755746
0.0725975
0.0760291
0.0725887
0.045411
0.0829862
0.0453827
0.077904
0.0426885
0.0450475
0.0456702
0.081293
0.0760838
0.0618016
0.0511664
0.0922794
0.0884575
0.0509664
0.0919328
0.0381292
0.038775
0.0360134
0.0490424
0.0877986
0.0869873
0.047277
0.0901166
0.0639117
0.0404801
0.0404924
0.0384905
0.0576037
0.0399082
0.0708177
0.0867946
0.0779319
0.0791533
0.0781108
0.0864801
0.080691
0.0868005
0.0874316
0.0604892
0.0838061
0.0833476
0.0859029
0.079333
0.0888795
0.0834302
0.0853912
0.0785264
0.0513924
0.0785151
0.0611416
0.0786277
0.0438596
0.0592681
0.0765721
0.0775596
0.0506538
0.0696286
0.0892962
0.0846345
0.0843175
0.0429564
0.0623904
0.0850604
0.0785735
0.0820007
0.0438595
0.0399977
0.0391711
0.0680765
0.041689
0.0430951
0.0592559
0.0506968
0.0630884
0.087841
0.0855407
0.0712123
0.0702002
0.0695218
0.0873957
0.071849
0.0652777
0.0713697
0.0702873
0.0669935
0.0702355
0.0678523
0.0718815
0.0729258
0.0878922
0.0858438
0.0839204
0.0841529
0.0476288
0.0846375
0.0843666
0.0534979
0.0423884
0.042825
0.0457413
0.0456
0.0739553
0.0443653
0.0501083
0.043615
0.0495078
0.069515
0.0421759
0.0439988
0.0411377
0.0438282
0.0707732
0.0768316
0.0794455
0.0457317
0.0908158
0.0451647
0.0802584
0.0770916
0.0818104
0.0877493
0.0916525
0.0718483
0.0870367
0.0888934
0.0841333
0.0726218
0.091594
0.071524
0.0844847
0.0893142
0.0506889
0.0509975
0.0382281
0.0748478
0.0653929
0.0733646
0.0641992
0.0744903
0.0750656
0.0644244
0.0982484
0.0953814
0.082868
0.0957355
0.0970675
0.0958831
0.0828162
0.0848232
0.0950974
0.0965989
0.095778
0.0949087
0.0865511
0.0849949
0.0851185
0.0868559
0.0379254
0.08952
0.0864522
0.0388318
0.0856073
0.0892144
0.0374488
0.0860062
0.0379146
0.0732103
0.0784732
0.066903
0.0737555
0.0747376
0.0670041
0.079174
0.0780075
0.0664095
0.0744732
0.076815
0.0665914
0.0976956
0.0818489
0.0951947
0.0827334
0.0963189
0.094099
0.0967882
0.096536
0.083084
0.094846
0.0834859
0.0959629
0.095326
0.0952913
0.0968765
0.0826947
0.0829101
0.0950406
0.0948797
0.0964893
0.0954613
0.0871233
0.0851577
0.085225
0.085423
0.0362441
0.0871403
0.0853178
0.0345559
0.0852011
0.0871369
0.0217253
0.0853067
0.0344189
0.077405
0.0776391
0.0670838
0.0791892
0.0752759
0.0670154
0.077885
0.0768919
0.0670933
0.0751586
0.0767451
0.0670576
0.0972941
0.0826946
0.094795
0.0827728
0.0959913
0.0946505
0.0965047
0.0972629
0.0828193
0.0951473
0.0825885
0.0962727
0.0943719
0.0957991
0.0973159
0.0827804
0.0825491
0.0950652
0.0944416
0.0966245
0.0958682
0.087115
0.0851621
0.0852718
0.0851682
0.0872173
0.0851838
0.0332303
0.0852903
0.0871988
0.0349368
0.0853478
0.0343356
0.0826413
0.0773981
0.0670574
0.0821685
0.0756021
0.0670242
0.0773369
0.076986
0.0671809
0.0758153
0.0767592
0.067097
0.0973641
0.0832764
0.0948943
0.0828013
0.0960065
0.0947305
0.0966595
0.0974805
0.082857
0.0950943
0.082631
0.096554
0.0945198
0.0959502
0.0973095
0.0827706
0.082612
0.0950877
0.0944699
0.0964284
0.095876
0.0865649
0.0849885
0.0852154
0.08547
0.0350365
0.0880401
0.0855816
0.0348507
0.0861251
0.0888167
0.0390554
0.0860484
0.0368411
0.0766822
0.0766188
0.0667604
0.0756079
0.0775456
0.0665391
0.07633
0.0663267
0.0664637
0.0801004
0.0658643
0.0659968
0.0976896
0.0819373
0.0952371
0.0829335
0.0962617
0.0944193
0.0969334
0.097258
0.0828169
0.0950603
0.0788801
0.0967153
0.0949215
0.0957245
0.096314
0.0832771
0.0802286
0.0946082
0.0958754
0.0956251
0.0951135
0.0861329
0.0866986
0.0857277
0.0865524
0.0387543
0.0894531
0.0867173
0.0383679