/*--------------------------------*- C++ -*----------------------------------*\
  =========                 |
  \\      /  F ield         | OpenFOAM: The Open Source CFD Toolbox
   \\    /   O peration     | Website:  https://openfoam.org
    \\  /    A nd           | Version:  10
     \\/     M anipulation  |
\*---------------------------------------------------------------------------*/
FoamFile
{
    format      ascii;
    class       volScalarField;
    location    "0.1";
    object      k_0;
}
// * * * * * * * * * * * * * * * * * * * * * * * * * * * * * * * * * * * * * //

dimensions      [0 2 -2 0 0 0 0];

internalField   nonuniform List<scalar> 
115408
(
0.0948874
0.095205
0.0950543
0.0951479
0.0951126
0.0952882
0.0952017
0.0950154
0.0952943
0.0950582
0.0948722
0.0951354
0.0952418
0.0953274
0.0951474
0.0950142
0.0950683
0.0953528
0.0952223
0.0949129
0.0948917
0.0948771
0.0952507
0.0950347
0.0949352
0.0948681
0.0948817
0.0950729
0.0951673
0.0952727
0.0948785
0.0948719
0.0952912
0.0951896
0.0951123
0.0953709
0.0969566
0.0994637
0.0983134
0.0992206
0.0959752
0.095415
0.0962788
0.0997702
0.103137
0.100259
0.0956461
0.0957639
0.095437
0.0955433
0.095915
0.0956413
0.0951603
0.095719
0.0960026
0.0962042
0.0955488
0.0963785
0.100749
0.097688
0.0973698
0.0986743
0.101069
0.096703
0.0956603
0.0997171
0.0983084
0.0956692
0.0956146
0.0955127
0.0996319
0.0990245
0.0960175
0.100002
0.0973714
0.0958853
0.0950182
0.095032
0.0981501
0.0989875
0.0984632
0.0961515
0.0955261
0.0951146
0.101589
0.0962825
0.100555
0.0990629
0.0983876
0.100874
0.0954556
0.0952159
0.0953793
0.0958538
0.097401
0.0959761
0.0977398
0.103737
0.0984662
0.0958747
0.0969954
0.0982095
0.096135
0.0962834
0.0989411
0.0974399
0.0961746
0.0961449
0.098596
0.0970897
0.0954483
0.0968858
0.0984513
0.0962296
0.095774
0.0965556
0.0961528
0.0956972
0.0960363
0.0979361
0.0967442
0.0953666
0.0972764
0.0986515
0.0968796
0.0971039
0.096351
0.098391
0.0971969
0.0959829
0.0988475
0.0967084
0.0954164
0.0967296
0.0985933
0.0972878
0.0981702
0.0963324
0.0975875
0.101637
0.0969498
0.10003
0.0977253
0.0979048
0.0973556
0.0959174
0.096579
0.0951359
0.0951088
0.0973087
0.0978259
0.0960959
0.0990745
0.0956001
0.0954172
0.0968708
0.0970244
0.0976606
0.098898
0.0984986
0.0982556
0.0972838
0.0957303
0.0955865
0.0965923
0.098312
0.0971306
0.102141
0.100051
0.0978867
0.0963157
0.0962205
0.0981536
0.0974616
0.0952687
0.0971891
0.096865
0.0980789
0.0962285
0.0982181
0.098808
0.0961315
0.095339
0.0963058
0.0981916
0.097413
0.0949399
0.0974959
0.0978776
0.0974082
0.0967017
0.0981278
0.0963042
0.095769
0.094997
0.0962993
0.0984319
0.097207
0.0948215
0.0971687
0.0964671
0.0969667
0.0972144
0.0977849
0.0966812
0.0960822
0.0951537
0.0964672
0.0979095
0.0973583
0.094721
0.0976136
0.0956598
0.0958623
0.0969619
0.101532
0.105837
0.0964612
0.0987676
0.0977394
0.0954211
0.0952483
0.0985317
0.0986937
0.105175
0.100234
0.0995549
0.0965766
0.0982544
0.0990738
0.0992171
0.0980105
0.0993702
0.0980651
0.0967045
0.0985787
0.0976407
0.044985
0.0930502
0.0962162
0.0962474
0.0955665
0.0956493
0.0977223
0.0965008
0.0966051
0.0684097
0.0745364
0.0929285
0.0964175
0.0954459
0.0949307
0.0956637
0.0980036
0.0964788
0.096705
0.0841265
0.0453303
0.0426468
0.0799089
0.0932035
0.0959103
0.0954229
0.0949265
0.0956043
0.097944
0.096476
0.0964824
0.0767177
0.0406935
0.041703
0.0759236
0.0926396
0.0961889
0.0953947
0.0949723
0.0958583
0.0980716
0.0964738
0.0965844
0.0594084
0.0530845
0.0917654
0.0962325
0.0982587
0.0974086
0.0888821
0.0410867
0.094471
0.0909694
0.0494017
0.0863372
0.0862113
0.0885283
0.102494
0.0984511
0.0861302
0.0887471
0.0954025
0.0958879
0.0957565
0.0953694
0.0966709
0.0977874
0.0870801
0.0874492
0.0957599
0.0949752
0.095014
0.0952008
0.0965187
0.0977571
0.0872466
0.086544
0.0955708
0.0949671
0.0949283
0.0952088
0.0965409
0.0977639
0.0872961
0.0874339
0.0957329
0.094999
0.0950105
0.0953863
0.0965649
0.0976476
0.0863979
0.088922
0.0957192
0.0975747
0.098301
0.0881499
0.0948468
0.0806662
0.0913816
0.0973873
0.0959996
0.0972411
0.0974052
0.0929636
0.0838504
0.0966795
0.095863
0.0951788
0.0954008
0.0970089
0.0964213
0.0896271
0.0813476
0.0965902
0.0956194
0.0949346
0.0953878
0.0970078
0.0962312
0.0897672
0.0839475
0.0965492
0.0956327
0.0949241
0.0955035
0.0969775
0.0963688
0.0894238
0.0825997
0.0965318
0.0956238
0.0949407
0.0956811
0.0972079
0.096988
0.0912121
0.0803112
0.096341
0.0971349
0.0971514
0.0942308
0.0989124
0.0973204
0.0834574
0.0546555
0.0987407
0.0995222
0.100733
0.107079
0.0961705
0.0962293
0.0977157
0.0974552
0.0958279
0.0996606
0.0926157
0.0913171
0.0891079
0.107924
0.106772
0.0959431
0.0959882
0.0995784
0.097814
0.0944383
0.0910215
0.0879494
0.0899864
0.0908717
0.106758
0.106466
0.0958615
0.095937
0.0999306
0.0969871
0.0960979
0.0958319
0.0867362
0.0898603
0.0898291
0.102031
0.105721
0.0958377
0.0959726
0.0996993
0.0977686
0.0947805
0.0917838
0.089693
0.0902486
0.0901708
0.104959
0.106525
0.0958198
0.0960417
0.0973212
0.0970802
0.0949317
0.0893256
0.0918157
0.0910589
0.0897644
0.106085
0.106146
0.0959066
0.0967696
0.0970737
0.0973091
0.095157
0.0973248
0.100227
0.0984622
0.0982553
0.101149
0.0963496
0.0968391
0.0967188
0.102536
0.0992467
0.0965439
0.0961468
0.095951
0.0955117
0.0991762
0.0984904
0.0962253
0.0951686
0.0980427
0.0991795
0.0968753
0.0958129
0.0955411
0.0954844
0.0957824
0.0982668
0.0974049
0.0959581
0.0950736
0.0973542
0.0975108
0.096411
0.0954317
0.0953568
0.0953432
0.095604
0.0976552
0.0971974
0.0959338
0.0950496
0.0971497
0.0972397
0.0963035
0.0953716
0.0953307
0.0953614
0.0955188
0.0976243
0.0971538
0.0958927
0.0950763
0.0971858
0.0974378
0.0964141
0.0954097
0.0953734
0.0953547
0.0956406
0.0975918
0.0973355
0.0959499
0.0951678
0.0979106
0.0987591
0.0968177
0.0957312
0.0954853
0.0955035
0.0963739
0.0989973
0.0981649
0.0960711
0.0957225
0.0984925
0.100539
0.0966934
0.0964498
0.0957742
0.0963967
0.100166
0.0978913
0.0967022
0.095416
0.0953707
0.0949091
0.0948763
0.0948849
0.0948957
0.0950226
0.0951878
0.0950145
0.0952474
0.0951483
0.0949223
0.0949019
0.0948638
0.0948738
0.0949101
0.0949795
0.0950744
0.0950276
0.0951379
0.0951182
0.0948994
0.0948909
0.0948607
0.094867
0.0949339
0.0949903
0.0950676
0.0950091
0.095149
0.0951246
0.0948963
0.0948914
0.0948599
0.094865
0.0949259
0.0949929
0.0950554
0.0950341
0.0951637
0.0951179
0.0949006
0.0948907
0.0948614
0.0948728
0.0949077
0.0949852
0.0950756
0.0949937
0.0952304
0.0951422
0.0949095
0.0949027
0.0948695
0.0948743
0.0948843
0.0950296
0.095145
0.0950795
0.0955171
0.095432
0.0948858
0.0948867
0.0948718
0.0948674
0.0949953
0.094901
0.0948901
0.0519895
0.0578711
0.0839934
0.0972563
0.0969618
0.0863473
0.0473316
0.0966083
0.0977497
0.096978
0.0471068
0.0437609
0.0955511
0.0970688
0.0967492
0.0547114
0.044987
0.069339
0.0991113
0.0969342
0.0949045
0.0618865
0.0833919
0.0815951
0.0939092
0.096489
0.0969367
0.0964885
0.0883298
0.0452646
0.0927532
0.0634558
0.0968169
0.0973795
0.0966008
0.0461114
0.0443316
0.0665366
0.0656603
0.0959168
0.0976549
0.0960272
0.0447547
0.0778797
0.0675462
0.0836842
0.0952627
0.0966646
0.0953425
0.0863254
0.0933622
0.0876164
0.0927751
0.0965151
0.0973514
0.0965332
0.0927475
0.0633749
0.0895345
0.0625034
0.0964563
0.0978488
0.0964606
0.0670738
0.0660077
0.0624756
0.0536055
0.0961234
0.0971933
0.0963953
0.0678131
0.0851895
0.0566856
0.0829187
0.0952714
0.0969606
0.0955466
0.0881859
0.0926483
0.087395
0.0928809
0.0961292
0.0982512
0.0971138
0.0880239
0.059748
0.0781772
0.043638
0.0962476
0.0969598
0.0958768
0.0582017
0.0520951
0.0963462
0.0967853
0.097995
0.0544851
0.0770025
0.0654842
0.0949127
0.0983839
0.0946394
0.0858856
0.0931347
0.0693544
0.0932797
0.09781
0.0953808
0.0955328
0.0775099
0.0532809
0.095905
0.0983427
0.0967013
0.0966161
0.0985654
0.095335
0.064301
0.0431096
0.0985512
0.0987753
0.0997994
0.0689508
0.0921942
0.0449659
0.0932043
0.0952364
0.0954861
0.095241
0.0485544
0.0571657
0.0968269
0.0984995
0.0965759
0.0927443
0.0986946
0.0957221
0.0386001
0.0449458
0.106921
0.0438968
0.0493113
0.0975006
0.0984701
0.0988252
0.0967289
0.0726394
0.0891528
0.0900034
0.0965633
0.0971835
0.0973081
0.0657664
0.0890382
0.0869933
0.0964464
0.0976084
0.0985291
0.091315
0.084304
0.0953878
0.0983205
0.0958102
0.0490537
0.0895457
0.0995368
0.0993353
0.0887566
0.0811941
0.0913866
0.0370942
0.0440618
0.0819338
0.0957644
0.0879409
0.0857303
0.0966542
0.0702579
0.0888632
0.0690121
0.0410616
0.0623833
0.085318
0.0710399
0.0798164
0.0969233
0.0840133
0.0928763
0.0935674
0.0939892
0.0856037
0.0964802
0.0832439
0.0959857
0.0696737
0.0967503
0.0796701
0.0891584
0.089324
0.0839331
0.0453786
0.0444676
0.0410973
0.0662306
0.0425366
0.0734222
0.0797426
0.0791861
0.0800304
0.0829371
0.08395
0.0939916
0.0933566
0.0940022
0.0832583
0.0958686
0.0848584
0.095904
0.0797938
0.0966339
0.0774324
0.089308
0.0893721
0.0463036
0.0796006
0.0435505
0.0412211
0.0422478
0.041763
0.0742278
0.0401157
0.0713153
0.080006
0.0783641
0.0798664
0.0834288
0.0795162
0.0939883
0.0931415
0.0940371
0.084809
0.0957767
0.0830825
0.0955095
0.0748849
0.0966929
0.0620165
0.0893635
0.0882998
0.042449
0.0590164
0.0676486
0.0496536
0.0795552
0.0553022
0.0806743
0.0818215
0.0956143
0.0938615
0.0926055
0.0938735
0.0833724
0.0958237
0.0851431
0.0954107
0.0634962
0.0882529
0.0441442
0.088115
0.0890597
0.044006
0.0478984
0.0801119
0.0831541
0.0952756
0.0936256
0.0887563
0.0949245
0.0849592
0.0955628
0.0420555
0.0960019
0.0529003
0.0898073
0.0909279
0.0454506
0.0394006
0.090024
0.0840557
0.0947428
0.08077
0.0567706
0.0856553
0.0831939
0.0820745
0.0855937
0.0915256
0.0915914
0.0892017
0.0902405
0.0860367
0.0839494
0.0788598
0.0745915
0.0843223
0.0958025
0.0948423
0.0519225
0.0832727
0.0958112
0.083913
0.0963291
0.0963633
0.0492664
0.0390916
0.0989211
0.0961217
0.0880064
0.0808627
0.0978927
0.0900403
0.103949
0.0829004
0.0879753
0.0848325
0.100067
0.0980735
0.0996342
0.0975594
0.0982654
0.0976276
0.0992389
0.0868563
0.0896633
0.0880631
0.107493
0.102993
0.0767513
0.0946154
0.0952647
0.0876765
0.09511
0.0832289
0.0950826
0.0865141
0.0950758
0.0994906
0.0978585
0.0993214
0.0973254
0.0993424
0.0974617
0.0996105
0.0872391
0.0875872
0.0876094
0.101678
0.099064
0.0957674
0.10161
0.0951519
0.0866235
0.0950977
0.0869093
0.0951202
0.0879321
0.095093
0.0993562
0.0978268
0.0993534
0.09739
0.0995521
0.0973953
0.099572
0.087286
0.0873623
0.0872269
0.0985339
0.0990393
0.101876
0.100938
0.0951047
0.086889
0.095086
0.0879881
0.0951023
0.0878813
0.0950841
0.0994335
0.0978825
0.099766
0.0972495
0.0994675
0.0972062
0.0987866
0.0864682
0.0873789
0.0894863
0.101169
0.107548
0.0988304
0.0610381
0.0951321
0.0890234
0.095126
0.087592
0.0951094
0.0768177
0.0950937
0.0996787
0.0971976
0.0993049
0.0968767
0.0987283
0.0963202
0.0970384
0.0872862
0.0897193
0.0913876
0.107555
0.0612075
0.0951198
0.0796793
0.0951233
0.0987308
0.0950759
0.0913826
0.0961795
0.0963165
0.0969524
0.0959843
0.0912192
0.092411
0.0892907
0.0872568
0.0668137
0.0732041
0.0751494
0.0722455
0.0941494
0.0512787
0.0849074
0.0925891
0.0748798
0.0406298
0.0985793
0.0864702
0.0981407
0.089428
0.0378282
0.0372428
0.102456
0.0860356
0.0935417
0.0951357
0.0852999
0.0919847
0.0880922
0.0919761
0.09192
0.0936609
0.0853899
0.0725934
0.0891019
0.0937137
0.0901696
0.0937397
0.0849336
0.0946321
0.0861395
0.0931642
0.0873674
0.0938217
0.0677488
0.0919412
0.0900059
0.0723354
0.0720309
0.0913398
0.0910115
0.0766177
0.0868195
0.0733895
0.0769228
0.089618
0.0923378
0.0899516
0.0935535
0.0900843
0.0948259
0.085865
0.0985414
0.0851607
0.0948407
0.0686408
0.0971155
0.059483
0.0719426
0.0716224
0.0612709
0.0752848
0.0767331
0.0789155
0.0787111
0.0750257
0.0725832
0.082335
0.0871354
0.0937657
0.0838036
0.0951338
0.089367
0.0986308
0.0848674
0.0969268
0.0865828
0.097057
0.0593946
0.0954794
0.0686899
0.0615157
0.0752846
0.0677371
0.0761647
0.0786577
0.074653
0.0778385
0.0792034
0.0826535
0.0795314
0.0836262
0.0797988
0.0858115
0.094635
0.0909686
0.094934
0.0863158
0.0937247
0.0844742
0.0948672
0.0701801
0.0850276
0.0880765
0.0719924
0.0740497
0.0922482
0.0912028
0.0765466
0.08128
0.0917247
0.0975012
0.0772343
0.0664326
0.0868472
0.0937863
0.0932858
0.0941519
0.0929994
0.0934446
0.084552
0.0947091
0.0854139
0.0851433
0.088173
0.0906873
0.0870585
0.0927598
0.0898094
0.0893656
0.0844224
0.0907207
0.0966825
0.0868191
0.0891182
0.0653538
0.0926479
0.0923646
0.0955329
0.08954
0.0946468
0.0846113
0.0954688
0.0961265
0.0920388
0.0865095
0.0998703
0.0821455
0.0922881
0.0834557
0.0957382
0.0819515
0.0907448
0.0877242
0.0950123
0.0940029
0.0865626
0.0489908
0.0970046
0.0935743
0.096373
0.0953837
0.0483093
0.0513025
0.099482
0.0947904
0.0990724
0.0956881
0.0984584
0.0960669
0.0926048
0.100934
0.10028
0.0977701
0.100673
0.0920873
0.0945525
0.0997086
0.100128
0.0991307
0.0998856
0.0917608
0.0829903
0.099984
0.0940535
0.0985379
0.0997822
0.0918994
0.0887956
0.0846798
0.0979232
0.0995844
0.097901
0.0995365
0.0936028
0.0890033
0.0859508
0.0984814
0.0990582
0.0981287
0.0982165
0.0864479
0.0915138
0.0960404
0.0977741
0.101249
0.0976206
0.0992572
0.0866733
0.0957709
0.0839364
0.0975807
0.0982563
0.0975613
0.0986143
0.0854957
0.0871008
0.088669
0.0985942
0.0973213
0.0983977
0.0966025
0.0935219
0.0896384
0.09168
0.0970481
0.0991278
0.0976159
0.098489
0.083586
0.0930698
0.0857287
0.0974444
0.0984595
0.097477
0.0979618
0.0886638
0.086853
0.0876405
0.0983004
0.0966374
0.0984293
0.097239
0.0914848
0.0897534
0.0926645
0.0975483
0.0983839
0.0976382
0.0984531
0.086035
0.0909771
0.0915443
0.0976772
0.0987363
0.0975244
0.0987452
0.0875252
0.0920302
0.0940298
0.0978626
0.0979822
0.0981022
0.0985374
0.0933318
0.0916193
0.0985445
0.0973144
0.0987155
0.0975433
0.100601
0.0912305
0.0954741
0.0855504
0.0972024
0.099248
0.0967166
0.0992993
0.0932872
0.0894846
0.0815379
0.0984185
0.0987924
0.0989212
0.0987257
0.0933741
0.0879614
0.095099
0.097919
0.0992595
0.0988092
0.0933669
0.095051
0.0979224
0.0950256
0.0831358
0.0969216
0.0951303
0.0977607
0.0949627
0.0830846
0.0949764
0.0860419
0.0980021
0.0950751
0.0982318
0.0949746
0.0861382
0.0949751
0.0850895
0.0972709
0.0951881
0.0989776
0.094974
0.0836948
0.095076
0.0786105
0.0969602
0.0951394
0.0969511
0.0950914
0.0789152
0.0969667
0.0578277
0.0959818
0.0958706
0.0960872
0.0975025
0.056825
0.0973117
0.0617053
0.0961168
0.0965521
0.0968279
0.0967785
0.0970495
0.05816
0.0438589
0.0728348
0.0552319
0.0718562
0.0967706
0.0964948
0.0967525
0.0964875
0.0965826
0.0964055
0.0962824
0.053488
0.0785961
0.0581074
0.0431735
0.0404715
0.0390503
0.0488236
0.0850307
0.0791889
0.0855869
0.0967291
0.0964956
0.0967628
0.0963945
0.0962951
0.0964151
0.0963698
0.0574208
0.0835706
0.0578626
0.042476
0.0440593
0.0421328
0.0535378
0.0420721
0.0524161
0.0865875
0.0791238
0.0863114
0.0967051
0.0965221
0.0969954
0.0964654
0.0965121
0.096582
0.0976265
0.0578778
0.0687197
0.042233
0.0427875
0.0404359
0.0854576
0.0705401
0.0720423
0.0971836
0.0967288
0.0976464
0.0965779
0.0980056
0.0963413
0.0978698
0.0390204
0.0475339
0.074478
0.0441893
0.070658
0.0974902
0.0954623
0.0952322
0.0974412
0.0968795
0.0950987
0.0909359
0.0536223
0.0838028
0.0909926
0.0949655
0.0783991
0.0596588
0.0916725
0.0399711
0.0650053
0.0928828
0.0711566
0.0515596
0.0607829
0.062932
0.0888462
0.0942603
0.0859496
0.0865572
0.0850632
0.0851545
0.0980997
0.0955446
0.0819934
0.0833803
0.0964743
0.0972183
0.094274
0.0872629
0.0852956
0.0853007
0.0976663
0.0952454
0.0824915
0.0832669
0.0961273
0.0969114
0.0947946
0.0872342
0.0854045
0.0853428
0.0974587
0.094898
0.0836245
0.0832591
0.0960732
0.0965633
0.0952243
0.0867145
0.0854237
0.0852059
0.0977708
0.0950808
0.0825354
0.083209
0.0962991
0.0968086
0.0947273
0.0860504
0.0854183
0.0851788
0.0986437
0.0954722
0.0818154
0.0832518
0.0970563
0.0974597
0.0950636
0.0370975
0.08861
0.0879543
0.0372911
0.0887318
0.0799857
0.0951247
0.0959077
0.0785543
0.048501
0.0794746
0.0909833
0.0537246
0.0821837
0.0705921
0.0553696
0.0795367
0.0450593
0.047939
0.0738257
0.0675251
0.0943949
0.0765991
0.0924216
0.089178
0.0757124
0.0782029
0.0952924
0.0979238
0.0972266
0.0959411
0.100975
0.0991572
0.096467
0.0960228
0.0698068
0.0836084
0.097044
0.0997677
0.0928205
0.0973616
0.0975427
0.0970853
0.0965879
0.0957588
0.0970387
0.098123
0.0782195
0.0423677
0.0911083
0.0897019
0.0399136
0.0802207
0.089095
0.0408928
0.0494727
0.0564121
0.0964036
0.0830538
0.0961761
0.0978475
0.0935506
0.0988115
0.0934338
0.0964321
0.0963902
0.0964224
0.0975642
0.10474
0.0968737
0.0954363
0.0729419
0.037527
0.089368
0.0903967
0.0351242
0.0682754
0.0926019
0.0364165
0.0397496
0.0962198
0.0838724
0.0956001
0.0997237
0.0934014
0.100446
0.0945493
0.0963422
0.0963487
0.096364
0.0966643
0.0955018
0.0968434
0.0951427
0.0725663
0.0368316
0.0895388
0.0922028
0.0332806
0.0721045
0.0920866
0.0342237
0.0345272
0.0956893
0.0831787
0.0956353
0.0938338
0.0943019
0.100963
0.0945346
0.0963939
0.0971544
0.0972836
0.0974992
0.0965681
0.0970311
0.0958451
0.0761726
0.0356288
0.0899007
0.092716
0.0348537
0.0727513
0.0898322
0.0435644
0.0424628
0.0959891
0.0819199
0.0960886
0.0986401
0.0938019
0.0997068
0.0939029
0.0971994
0.0969721
0.0970252
0.0965239
0.0951979
0.0964575
0.0964394
0.0807781
0.0400772
0.0927292
0.0888337
0.0430186
0.0788349
0.0891155
0.0423882
0.0659739
0.0566756
0.0964188
0.0971406
0.0932775
0.0445667
0.0520682
0.0670024
0.0438442
0.0489044
0.0329071
0.0530489
0.09668
0.0779237
0.0967343
0.0961168
0.0976526
0.100793
0.0852915
0.0403442
0.0902009
0.064819
0.0895227
0.0774365
0.0666171
0.0743964
0.0883693
0.0768973
0.0948183
0.0541366
0.0961885
0.0929193
0.0977752
0.0962761
0.097471
0.0982426
0.0651886
0.10039
0.0946964
0.0973269
0.0970487
0.0992756
0.0985093
0.0953493
0.0958193
0.0984961
0.0963262
0.102077
0.0986455
0.0952029
0.0959689
0.0884988
0.0992335
0.0984953
0.0994263
0.0996794
0.096033
0.0906814
0.0945779
0.0991889
0.0990818
0.0979899
0.0953138
0.0899036
0.0960581
0.0908879
0.0990058
0.0984391
0.0988543
0.0981154
0.0879066
0.0836831
0.0879073
0.0980756
0.0860469
0.0800725
0.0949053
0.0924278
0.0903028
0.0889487
0.0977538
0.0848137
0.0957744
0.0986841
0.0949154
0.0898939
0.0956541
0.0977857
0.0963682
0.0976918
0.0960137
0.0905882
0.0955895
0.0919117
0.0988054
0.0979256
0.0987865
0.0980686
0.088053
0.0859929
0.0873447
0.0942796
0.0864123
0.0882609
0.0944213
0.0863036
0.0859267
0.0898798
0.0958654
0.0850908
0.0863344
0.0958235
0.0919154
0.0904752
0.0950548
0.0975798
0.0958119
0.0976667
0.0963699
0.0913201
0.0953603
0.0956573
0.0989439
0.098347
0.0992235
0.0996858
0.0954758
0.0846323
0.0910352
0.100696
0.0871741
0.0930164
0.0994242
0.0952775
0.0861686
0.092241
0.100106
0.0905659
0.0920058
0.0987676
0.0945126
0.0907704
0.0956561
0.0976979
0.0952185
0.0989214
0.0988613
0.095143
0.0955366
0.0958578
0.099001
0.101528
0.0976623
0.097555
0.0957485
0.0991243
0.0950072
0.101379
0.0983048
0.0987256
0.0966248
0.092608
0.0958702
0.0956738
0.100434
0.10086
0.0967665
0.0959405
0.0897765
0.0992979
0.0971625
0.099966
0.0999468
0.0965794
0.0960671
0.0954212
0.0987825
0.101069
0.0987015
0.0963231
0.0961476
0.0979027
0.0986267
0.0980881
0.0959585
0.0949297
0.0967206
0.0953331
0.0984066
0.0972043
0.0986577
0.095237
0.0949831
0.0956739
0.0954672
0.0811628
0.0877482
0.0767462
0.0931577
0.0537975
0.0871109
0.037552
0.0859457
0.0480581
0.0876992
0.0934433
0.0819965
0.0644574
0.0935783
0.0875139
0.05728
0.0867481
0.0891746
0.042277
0.0584158
0.0864493
0.0866241
0.0554081
0.086153
0.0324574
0.088614
0.0925134
0.0866808
0.090491
0.0902866
0.085726
0.0861277
0.0938083
0.0397543
0.0418336
0.0924367
0.086634
0.0873508
0.089316
0.0416443
0.0870135
0.0869689
0.0868765
0.0902531
0.0819826
0.092798
0.0396312
0.0881793
0.0875952
0.0663181
0.0855486
0.089318
0.0419086
0.0865431
0.0945654
0.0415317
0.056497
0.093487
0.0866365
0.0419905
0.0871504
0.0866098
0.0670266
0.0590894
0.0882074
0.0866481
0.0452135
0.0802922
0.0932314
0.0832883
0.0694319
0.0854891
0.0946353
0.0851706
0.0905495
0.0975401
0.0746559
0.0908228
0.0957935
0.095258
0.0841759
0.0793676
0.0935432
0.0661976
0.0882988
0.0877304
0.0963387
0.078354
0.0829815
0.0881572
0.0594586
0.0620903
0.0864401
0.0900341
0.0781685
0.0906302
0.0972947
0.0896098
0.0799022
0.0966796
0.0943
0.0777056
0.0864591
0.0899633
0.0629663
0.078841
0.0895646
0.0880827
0.0773833
0.0861611
0.0944286
0.0420437
0.0638957
0.0860846
0.0944729
0.0475984
0.0861386
0.0891133
0.0418833
0.0560456
0.0864051
0.0903025
0.0475598
0.0870677
0.0942998
0.0652446
0.0682283
0.0938665
0.0875401
0.0468523
0.0866487
0.0901332
0.0562638
0.0679044
0.0900705
0.0867934
0.0477966
0.0876268
0.095091
0.0554054
0.0596055
0.0871946
0.095506
0.0718132
0.0865856
0.0868679
0.0577512
0.0834768
0.0867064
0.0873886
0.0725301
0.0878364
0.0959324
0.0607735
0.0726512
0.0956293
0.0878863
0.0727874
0.0865079
0.087664
0.0835542
0.0710224
0.0875618
0.0864799
0.0733561
0.0939601
0.0975644
0.0794347
0.09282
0.0939411
0.0975389
0.0796767
0.0879983
0.0904714
0.0774972
0.0634265
0.087945
0.0902969
0.0786615
0.094139
0.0974655
0.0931094
0.076189
0.0976605
0.0902875
0.0795875
0.0881329
0.0899898
0.063365
0.0724764
0.0902059
0.0864647
0.078498
0.087635
0.0948817
0.068475
0.0667567
0.0877222
0.0947126
0.0678433
0.0865805
0.0900573
0.0680807
0.0646949
0.0865859
0.0899514
0.0672644
0.087518
0.0946774
0.0666629
0.0473198
0.0947067
0.0867654
0.0668463
0.0866367
0.0902284
0.06397
0.0463182
0.0899074
0.0864972
0.0650997
0.0878219
0.0955583
0.0728257
0.0666519
0.0879199
0.0953063
0.0737511
0.0864647
0.0877915
0.0710868
0.0849888
0.0865002
0.0878224
0.0733754
0.0877926
0.0948329
0.0660081
0.06873
0.0951588
0.0877169
0.0745788
0.0864122
0.0876836
0.084135
0.0701814
0.0877735
0.0864672
0.0749292
0.0877772
0.0962883
0.0750224
0.0860508
0.0789728
0.09388
0.0599236
0.0864953
0.089583
0.0691308
0.0461841
0.0832778
0.0880036
0.0573086
0.0878484
0.0938899
0.0852058
0.0494825
0.0937791
0.0876489
0.0561462
0.0862779
0.086776
0.0468297
0.0430133
0.0893814
0.0864867
0.0560265
0.086095
0.0943259
0.0461899
0.0456694
0.0858545
0.0930788
0.0410029
0.0868568
0.0887011
0.0449741
0.0417418
0.0861757
0.0878459
0.04104
0.0872218
0.0926129
0.0458489
0.0919232
0.0847837
0.0391554
0.0890759
0.0869531
0.0402975
0.0880691
0.0869958
0.0381732
0.0863052
0.0943303
0.0664376
0.0416699
0.0871061
0.0937667
0.0516847
0.0864337
0.086996
0.0682611
0.0730038
0.0866924
0.0864057
0.0540119
0.086475
0.0936245
0.0415632
0.0404606
0.0938964
0.0860302
0.0514142
0.0865763
0.0920857
0.072901
0.0413254
0.088772
0.0864845
0.0535051
0.0933979
0.0962345
0.082246
0.0832596
0.0980637
0.0929135
0.0865621
0.0864373
0.0932265
0.0453011
0.0655307
0.0875122
0.0914593
0.0443639
0.0889765
0.0876422
0.0467142
0.0873163
0.0875871
0.0401337
0.0880075
0.0928252
0.0582527
0.0915776
0.0825102
0.0421925
0.0904742
0.0883463
0.0850968
0.082895
0.0356712
0.088763
0.0936971
0.0856851
0.089644
0.093373
0.0855769
0.0868485
0.0890733
0.0899355
0.0950936
0.0918871
0.0904354
0.0935066
0.0915553
0.0898862
0.0919823
0.085173
0.0927852
0.0409651
0.0864328
0.0897245
0.0858857
0.089581
0.0405721
0.051705
0.0878801
0.0879991
0.0860637
0.0924382
0.0910823
0.0923026
0.0870948
0.0837754
0.0498703
0.0863044
0.0944392
0.0856279
0.0943207
0.0862667
0.0575485
0.080421
0.0934871
0.080862
0.0852521
0.0922863
0.0566474
0.0725887
0.0926666
0.0859731
0.0721867
0.082962
0.0923267
0.0453295
0.0842988
0.0925221
0.0903162
0.0892267
0.0863501
0.0883549
0.083181
0.092334
0.0454417
0.0927331
0.0846912
0.0904796
0.0867066
0.0883167
0.0866449
0.089395
0.0939201
0.089703
0.091323
0.0915471
0.0916262
0.0914973
0.0906379
0.0891938
0.0911053
0.0911965
0.0888883
0.0914122
0.0911654
0.0904877
0.0918182
0.0929111
0.0923553
0.0926301
0.0924291
0.0942497
0.0825099
0.0948969
0.0856776
0.0927583
0.0928554
0.0923525
0.0918371
0.0940734
0.0855862
0.0849931
0.0926546
0.0906693
0.0727291
0.0862
0.0915347
0.0916188
0.0914464
0.079001
0.0932348
0.0888921
0.0825856
0.0949315
0.0802784
0.0841982
0.0870601
0.0628792
0.0836939
0.086272
0.0808537
0.088541
0.0895973
0.0639916
0.0894137
0.0901862
0.0691915
0.086009
0.0916559
0.0684614
0.0937151
0.0911029
0.0636436
0.0834941
0.0939638
0.0705772
0.0903826
0.0913938
0.0863906
0.089122
0.0715707
0.0728796
0.0779605
0.0725327
0.0494512
0.060684
0.0807014
0.0523644
0.0656837
0.0826367
0.08212
0.0514183
0.0582155
0.0882817
0.09445
0.0438991
0.0591951
0.0938433
0.0885546
0.0946278
0.0609577
0.0452566
0.0461156
0.0396015
0.0634902
0.0488513
0.0457185
0.0427352
0.0431269
0.0506287
0.0418689
0.0526753
0.041999
0.07392
0.0805155
0.0780538
0.0793169
0.0781999
0.0588925
0.082158
0.0732029
0.080808
0.0870455
0.0817417
0.0814333
0.0787042
0.0732757
0.101568
0.0765186
0.0790525
0.100262
0.0780896
0.0645792
0.0822273
0.0769915
0.0821244
0.0544482
0.065815
0.0765631
0.0819692
0.0822242
0.0671389
0.065982
0.0926162
0.0450817
0.089337
0.0611127
0.0910676
0.0370639
0.0538907
0.0468913
0.0662702
0.090596
0.0893319
0.0375328
0.0908362
0.0661754
0.0371836
0.0544142
0.0547993
0.0441572
0.0441176
0.0574798
0.0790824
0.0587456
0.0560413
0.044781
0.0578317
0.0555623
0.0377319
0.0437818
0.0423342
0.040469
0.038754
0.0420234
0.0415567
0.0731812
0.0518153
0.040085
0.0530515
0.0502592
0.0733596
0.0549545
0.0533947
0.0792764
0.0864495
0.0857846
0.0799913
0.0858928
0.0799719
0.0804976
0.0920187
0.07957
0.0670998
0.0820559
0.0793571
0.0819275
0.0672547
0.0670546
0.0786739
0.0819615
0.0818921
0.0626977
0.066324
0.0906135
0.0376063
0.0893346
0.066175
0.090606
0.0374587
0.0547958
0.0548667
0.0663746
0.0911644
0.0893395
0.0367597
0.0906487
0.0658317
0.0374361
0.0547973
0.0531927
0.0550806
0.0448035
0.0572426
0.0835013
0.0565278
0.0579699
0.0447546
0.0550043
0.0572425
0.0421545
0.0408824
0.04163
0.044002
0.0417286
0.0407921
0.0405846
0.0555042
0.0725934
0.0550672
0.0417705
0.0441424
0.0520792
0.0730943
0.0482482
0.0551246
0.0790775
0.0854306
0.0860189
0.0804892
0.0965774
0.0795554
0.080273
0.0972646
0.0790288
0.0557349
0.0822483
0.0702323
0.0829664
0.0618583
0.0534215
0.0693779
0.0805429
0.0827457
0.0471892
0.061052
0.0915051
0.0365721
0.0886498
0.0656526
0.0932263
0.0490579
0.0529655
0.0605299
0.0950402
0.0886007
0.0942443
0.057125
0.0478573
0.0427454
0.0553452
0.0437424
0.0674663
0.042098
0.0458441
0.0387329
0.0464452
0.0462958
0.0619831
0.0398907
0.0424339
0.0596885
0.0405684
0.0682016
0.0713718
0.0748167
0.0804567
0.0789485
0.0782287
0.082851
0.0763135
0.0800247
0.0949681
0.0786162
0.0767289
0.0975925
0.077983
0.043501
0.080512
0.0532111
0.0801383
0.0478355
0.0426487
0.0536746
0.0844935
0.0828057
0.0426197
0.0505059
0.0954419
0.0874772
0.0581852
0.0942408
0.0400946
0.0444902
0.0491705
0.0922509
0.0875603
0.0916466
0.0504355
0.0395711
0.0357704
0.0468066
0.0371728
0.0734874
0.0850949
0.0779489
0.0731698
0.0779253
0.0463679
0.0649937
0.0655235
0.0815264
0.0709785
0.0767872
0.0697832
0.0775508
0.0761036
0.076069
0.0729464
0.0765153
0.0729412
0.0457327
0.0832402
0.0456937
0.0782143
0.042921
0.045362
0.0459794
0.0815344
0.0763587
0.0621528
0.0513341
0.092386
0.0885873
0.0512625
0.0920591
0.0384674
0.0390631
0.0362212
0.0492127
0.0879899
0.0871312
0.0476437
0.0902611
0.0642283
0.040821
0.0408216
0.0388259
0.0579711
0.0401803
0.0711335
0.0869198
0.0781871
0.0794061
0.0783712
0.0865889
0.0809235
0.0870195
0.0876859
0.0608019
0.0840068
0.0835212
0.0861125
0.0796162
0.0890817
0.0836221
0.0856488
0.0787379
0.0517582
0.0787168
0.0613957
0.0788265
0.0441863
0.0596072
0.0768731
0.077837
0.0510324
0.0698723
0.0895351
0.0848359
0.0845041
0.0431951
0.0627201
0.0853296
0.0790667
0.082239
0.0441455
0.0403014
0.0394687
0.0684077
0.0420134
0.0434688
0.0597032
0.0510279
0.0634554
0.088081
0.0859077
0.0715955
0.0704308
0.0699068
0.0876052
0.0720554
0.0656423
0.0716441
0.0706041
0.0672937
0.0704954
0.0681766
0.072273
0.0731899
0.0881392
0.0860161
0.0841723
0.0843853
0.0478908
0.0848616
0.0845968
0.0537664
0.0426925
0.0431216
0.0460792
0.0459047
0.0742847
0.0447277
0.0504956
0.0439691
0.0498869
0.0698615
0.0424934
0.0443529
0.0414532
0.0441699
0.0710637
0.077184
0.0798587
0.0460986
0.0910072
0.0455477
0.0804616
0.0773952
0.0820246
0.0881306
0.0918296
0.0720398
0.0872445
0.0890786
0.0843598
0.0728645
0.09177
0.0717671
0.0846887
0.0894926
0.0510696
0.0513552
0.0385124
0.0753016
0.0656639
0.0737012
0.0644972
0.0749509
0.0754089
0.0647012
0.0983603
0.0955001
0.0832102
0.0960409
0.0971685
0.0959791
0.0831629
0.0850762
0.0951932
0.0969306
0.095876
0.0950025
0.0867134
0.0852025
0.0853293
0.0870555
0.0382007
0.0896671
0.0866483
0.0390956
0.08581
0.0893606
0.0377284
0.0862084
0.0381644
0.0736035
0.0789173
0.0671592
0.0741514
0.0751966
0.0672592
0.0796191
0.0783755
0.0666681
0.0749339
0.0772205
0.0668485
0.0978039
0.0821265
0.0953078
0.0830799
0.0964314
0.0944405
0.096889
0.0966429
0.0834289
0.0949458
0.0837402
0.0960698
0.095656
0.0953973
0.0969849
0.0830436
0.0831751
0.0951524
0.0952163
0.096592
0.0955713
0.0872779
0.085363
0.0854298
0.0856277
0.0365031
0.0872786
0.0855233
0.0347894
0.0854092
0.0872746
0.0219377
0.0855122
0.0346486
0.077788
0.0780887
0.0673384
0.0795626
0.0757325
0.0672673
0.0783353
0.0772848
0.0673515
0.075615
0.0771388
0.0673129
0.0974007
0.082955
0.0949011
0.0831197
0.0960964
0.0949845
0.0966043
0.0973716
0.0831654
0.0952598
0.0828566
0.096377
0.0947153
0.0959086
0.0974245
0.0831263
0.0828172
0.0951756
0.0947835
0.0967265
0.0959775
0.087269
0.085367
0.0854755
0.0853761
0.0873605
0.0853908
0.0334382
0.0854954
0.087338
0.0351742
0.0855526
0.0345636
0.0829984
0.0778479
0.0673099
0.0825256
0.0760585
0.0672761
0.0777863
0.0773761
0.067437
0.0762722
0.0771528
0.067352
0.0974714
0.0835269
0.0950043
0.0831492
0.0961121
0.0950641
0.0967608
0.0975884
0.0832024
0.095206
0.082897
0.0966566
0.0948609
0.0960593
0.0974185
0.0831183
0.082879
0.0951983
0.0948116
0.0965314
0.0959851
0.0867269
0.0851988
0.0854212
0.0856733
0.0352726
0.0881788
0.085784
0.0350233
0.0863244
0.0889557
0.0393245
0.0862439
0.037082
0.0770732
0.0770746
0.067015
0.0760024
0.0779934
0.0667946
0.0767877
0.0667523
0.0667231
0.0805493
0.066304
0.0662566
0.0978006
0.0822121
0.0953584
0.0832823
0.096375
0.0947574
0.0970415
0.0973679
0.0831658
0.0951748
0.0791959
0.0968194
0.0952581
0.0958371
0.0964227
0.0836227
0.0805472
0.0947047
0.0962012
0.0957286
0.095214
0.0863256
0.0868761
0.0859452
0.0867456
0.0390161
0.089608
0.0869135
0.0386543
0.0881715