/*--------------------------------*- C++ -*----------------------------------*\
  =========                 |
  \\      /  F ield         | OpenFOAM: The Open Source CFD Toolbox
   \\    /   O peration     | Website:  https://openfoam.org
    \\  /    A nd           | Version:  10
     \\/     M anipulation  |
\*---------------------------------------------------------------------------*/
FoamFile
{
    format      ascii;
    class       volScalarField;
    location    "0.1";
    object      nut;
}
// * * * * * * * * * * * * * * * * * * * * * * * * * * * * * * * * * * * * * //

dimensions      [0 2 -1 0 0 0 0];

internalField   nonuniform List<scalar> 
115408
(
0.0098607
0.00972413
0.00963689
0.00986098
0.00987283
0.00951955
0.0098385
0.00989933
0.00985596
0.00989419
0.00993957
0.00993261
0.00985284
0.00980953
0.00959984
0.00971625
0.00962498
0.0097977
0.00960161
0.00989529
0.00990023
0.00988148
0.00963999
0.00979664
0.00987045
0.00992228
0.00990077
0.00973725
0.00967473
0.00965652
0.00989879
0.00988728
0.00964028
0.00965874
0.00963843
0.0097912
0.00740566
0.00578164
0.00608596
0.00857948
0.00943458
0.00966756
0.00948667
0.00843707
0.00511801
0.00818691
0.00942365
0.00950883
0.00977103
0.00964153
0.00957676
0.0093923
0.00919571
0.0094862
0.0095464
0.00939762
0.00973753
0.00940904
0.00822893
0.00612578
0.00658447
0.00617595
0.0081027
0.009231
0.00971706
0.00860185
0.00606939
0.00831733
0.00850374
0.00891393
0.00612442
0.00858867
0.00943199
0.0085689
0.00684999
0.00820503
0.00936709
0.00938824
0.00673622
0.00878729
0.00602049
0.00705142
0.00855347
0.0090856
0.00535791
0.00938647
0.0082679
0.00597927
0.00602225
0.00815318
0.0096125
0.00946818
0.0093882
0.00842436
0.00791216
0.00829715
0.00714894
0.00500529
0.00881772
0.00964252
0.00921984
0.00637476
0.00831006
0.00806653
0.00632234
0.0071278
0.00775725
0.00807671
0.00862697
0.00932113
0.00978639
0.00924611
0.00628428
0.00813563
0.00862096
0.00750779
0.00826956
0.0087375
0.00827275
0.00887607
0.00969028
0.00980805
0.00915529
0.00626795
0.00791323
0.0069198
0.00780565
0.00631203
0.00775967
0.00840402
0.0085968
0.0094167
0.00977601
0.00929611
0.00637762
0.00688357
0.00657738
0.00871521
0.00882293
0.00566676
0.00774857
0.00599138
0.00896872
0.00870334
0.00697903
0.0080243
0.00888469
0.00902989
0.00905742
0.00813434
0.00668536
0.00794468
0.00839119
0.00857811
0.00886779
0.00780784
0.00734333
0.00693173
0.00623463
0.00647921
0.00672786
0.00652796
0.00709578
0.00720911
0.0040116
0.0032478
0.00365361
0.0027231
0.0058164
0.00895791
0.00952815
0.00961443
0.00651417
0.00693275
0.00413694
0.00331645
0.00340906
0.00334887
0.00331857
0.00697525
0.00642691
0.00949843
0.00979912
0.00972804
0.00648445
0.00695679
0.0042202
0.00315431
0.00317458
0.00330195
0.0032134
0.00709663
0.00809882
0.00958742
0.00990496
0.00974584
0.00640455
0.00707163
0.00418215
0.00322021
0.00377481
0.00358741
0.00335758
0.00710308
0.00794689
0.00949665
0.00985537
0.00949634
0.00661747
0.0069925
0.00403573
0.00346116
0.00359251
0.00280565
0.00365287
0.00297622
0.00504767
0.0094485
0.00629535
0.00680991
0.00387739
0.00342114
0.00514767
0.00519947
0.0029386
0.00589342
0.00302398
0.00268539
0.00397075
0.00478866
0.00320489
0.00316163
0.00275598
0.0029035
0.00739032
0.00620576
0.00690407
0.000253626
0.00338074
0.00785195
0.00933817
0.00973665
0.00970998
0.0071754
0.00854894
0.00446357
0.000716957
0.000920227
0.00350518
0.00794029
0.00973008
0.00992538
0.0097088
0.00699545
0.00859788
0.00447621
0.00107569
0.000277357
0.000264062
0.00101039
0.00352083
0.00802767
0.00974187
0.00992695
0.00972619
0.00703355
0.00859299
0.00445966
0.000941275
0.000204141
4.71667e-05
0.000918057
0.00346448
0.00802919
0.00974212
0.00991106
0.009649
0.00695708
0.00859874
0.00430872
0.00053378
0.000442757
0.00330973
0.00789529
0.00683724
0.00730728
0.00189549
0.000217881
0.00311909
0.00193982
0.000337894
0.00115303
0.00121298
0.00125386
0.00277048
0.00582747
0.00168021
0.00141037
0.00918014
0.00944136
0.00968167
0.00978375
0.00784054
0.00803918
0.00203512
0.00146066
0.00922548
0.00990219
0.00990067
0.0098322
0.00795362
0.00808035
0.00204405
0.00148947
0.00927317
0.00991126
0.0099273
0.00983174
0.00794483
0.00812319
0.00203584
0.00145911
0.00930204
0.00989431
0.00990139
0.00978031
0.00794208
0.00827273
0.00185861
0.00144879
0.00919814
0.00722724
0.00738994
0.00216145
0.00327068
0.00141738
0.00240887
0.00287876
0.0096049
0.00804638
0.00756892
0.00268427
0.00163591
0.00781061
0.00960367
0.00985855
0.00978455
0.00824316
0.00843532
0.00252514
0.00144316
0.00789655
0.00967001
0.00992406
0.0097876
0.00845251
0.00863637
0.00268603
0.00159993
0.00793375
0.00966949
0.00992711
0.00975457
0.00839107
0.00847251
0.00258533
0.00149415
0.00788667
0.00966712
0.00992153
0.00969748
0.0089147
0.00784291
0.00279972
0.0014138
0.00789408
0.00854483
0.00758671
0.00330576
0.00639128
0.00362382
0.00114237
0.000437766
0.00248007
0.00243455
0.00604349
0.0063726
0.00946993
0.0096014
0.00745207
0.00715028
0.00341695
0.00317572
0.00157795
0.00152311
0.00137808
0.00260698
0.00577498
0.00953093
0.00974495
0.00746466
0.00645993
0.00294036
0.00161331
0.00116598
0.0011768
0.00159814
0.00329462
0.00584963
0.00955499
0.00971816
0.00784445
0.00695834
0.00410855
0.00190341
0.00126239
0.00156485
0.00146439
0.00321618
0.00579509
0.00955571
0.00975716
0.00762221
0.00649081
0.00362667
0.00163848
0.00115301
0.0013707
0.00153996
0.0030287
0.00584416
0.00955811
0.00967853
0.00729976
0.00741947
0.00363265
0.0013686
0.00152561
0.00153073
0.00112469
0.00306071
0.00575131
0.0095226
0.00961189
0.00754224
0.00732933
0.00336866
0.00426758
0.00337146
0.00363658
0.00700603
0.00492106
0.00379345
0.00331263
0.00345706
0.00511671
0.0024897
0.00805451
0.00865472
0.00858232
0.0086509
0.00618694
0.00879893
0.00954766
0.00985114
0.00902239
0.00631589
0.00764707
0.00863803
0.00884404
0.0087983
0.00867511
0.00779935
0.00906148
0.0096174
0.00987859
0.00912477
0.00722277
0.0081952
0.00875447
0.0088729
0.00884788
0.00883831
0.00832841
0.00910427
0.00962429
0.00988639
0.00918002
0.00739141
0.00835663
0.00877361
0.00888895
0.00885275
0.00885258
0.0082254
0.00910928
0.00963548
0.00987758
0.00917982
0.00726887
0.00827511
0.00876021
0.00887723
0.00884291
0.00877584
0.00775813
0.00906724
0.00961944
0.00985083
0.00905704
0.00658857
0.00807496
0.00865911
0.00882141
0.00877216
0.0085975
0.00764255
0.00884369
0.00958814
0.0096859
0.008944
0.00577828
0.00790893
0.00823807
0.0085531
0.00851523
0.00817403
0.00684138
0.00784434
0.00903284
0.00902202
0.00986611
0.00988982
0.00987295
0.00990388
0.00968613
0.00984796
0.0098983
0.0098317
0.00975047
0.00988868
0.00988713
0.00991158
0.00989877
0.00989686
0.00969287
0.00988125
0.00989482
0.00986407
0.00979367
0.00990371
0.00989852
0.00991639
0.00990763
0.00988299
0.00968755
0.00988267
0.00989974
0.00986051
0.0097942
0.00990642
0.00990001
0.00991726
0.00990929
0.00988582
0.00968913
0.00988636
0.00989202
0.00985583
0.00979855
0.00990171
0.00989833
0.0099158
0.00990344
0.00989814
0.00969536
0.00988005
0.00990474
0.00983662
0.0097594
0.00989859
0.00988285
0.00990522
0.00988837
0.00990771
0.00968762
0.00985973
0.00987805
0.00974989
0.00949401
0.00989637
0.0098979
0.00990825
0.00991117
0.00982943
0.00989891
0.00990158
0.000440861
0.000537629
0.00152079
0.00330835
0.00320122
0.00128722
0.000318092
0.00279029
0.00368871
0.00280829
0.000303739
0.000271065
0.0032841
0.00401875
0.00269208
0.000487304
0.000278618
0.000782265
0.00237753
0.00327925
0.00318696
0.000604584
0.00151721
0.00119366
0.00261543
0.00277663
0.0032159
0.00285838
0.00133932
0.000376388
0.00170359
0.000702279
0.00249422
0.00320296
0.00274198
0.000328069
0.000276353
0.000798327
0.000780672
0.00267135
0.00349409
0.0026528
0.000285255
0.00103576
0.000823868
0.00110045
0.00308014
0.00324711
0.00317051
0.00138643
0.00258491
0.00126894
0.00242975
0.0026953
0.00314339
0.00269469
0.00167085
0.0006793
0.00140574
0.000659307
0.00264627
0.00319991
0.00266742
0.000791372
0.000792276
0.000664758
0.000450022
0.00257908
0.00328943
0.00254326
0.000834515
0.00113429
0.00051696
0.00117054
0.00314989
0.00318434
0.00314204
0.00128973
0.00243657
0.00131024
0.00247328
0.00312441
0.0031644
0.00241135
0.00147625
0.000592958
0.000981805
3.85095e-05
0.00300436
0.00277716
0.00350743
0.00055829
0.000403561
0.00267261
0.00362801
0.00231561
0.000459427
0.000963814
0.00072704
0.00310801
0.00316189
0.00301517
0.00128917
0.00258739
0.000778014
0.00244418
0.00275872
0.00300615
0.00364519
0.000999265
0.00042932
0.00401098
0.00486222
0.00379898
0.00255905
0.00486625
0.00361917
0.00069794
9.03777e-05
0.00251545
0.00300992
0.0025646
0.000786068
0.00235028
0.000243539
0.00250949
0.00391499
0.00326573
0.00338359
0.000338989
0.000458148
0.00396119
0.00462696
0.00380143
0.00314262
0.00510571
0.00395416
4.05901e-05
0.000272571
0.00305971
0.000184884
0.000364265
0.00259686
0.0030524
0.00277921
0.00409892
0.000934573
0.00144019
0.00194053
0.002693
0.00343622
0.00245212
0.000579332
0.00150438
0.00125186
0.00349898
0.00250245
0.00267189
0.0013987
0.00116411
0.00318405
0.00249626
0.00307033
0.000382264
0.00136202
0.0025961
0.00218747
0.00124315
0.00107034
0.00214126
4.52989e-05
0.000187105
0.00141699
0.00138485
0.00174836
0.00144531
0.00448122
0.000879124
0.00218746
0.000743764
0.000161985
0.000638691
0.00181289
0.000824198
0.0013878
0.00151432
0.00123477
0.00311398
0.00345371
0.00351996
0.00148671
0.00658113
0.00154591
0.00615882
0.00085805
0.0044741
0.0012823
0.00226593
0.00233611
0.00107721
0.000279402
0.000273371
0.000256816
0.000737925
0.00026271
0.000891999
0.00140032
0.000995236
0.00139364
0.00120611
0.0012831
0.00366979
0.00353038
0.00368022
0.00156237
0.00617962
0.00166642
0.00653845
0.00128946
0.00446158
0.00118059
0.00234469
0.00232037
0.000284544
0.000962709
0.00024712
0.000258236
0.000241068
4.86154e-05
0.000913583
0.000150309
0.00084427
0.0013987
0.000977907
0.00138483
0.00126236
0.00112307
0.00369988
0.00352469
0.00371037
0.00166524
0.00645562
0.00157902
0.00609308
0.00108635
0.00446742
0.000620742
0.00228023
0.0022282
0.000218902
0.000528576
0.00075213
0.000411072
0.00139533
0.000496253
0.00139331
0.00118429
0.00159267
0.00373361
0.00337759
0.00368078
0.00158353
0.00633376
0.00152539
0.00576286
0.00065255
0.00180568
0.00024767
0.00222569
0.00229342
0.000288965
0.000357081
0.00133965
0.00135858
0.00151781
0.00353444
0.00198357
0.0034294
0.00150216
0.00591305
0.000213025
0.0032828
0.000397104
0.00250683
0.00335377
0.00027357
4.81219e-05
0.00229172
0.00121411
0.00343866
0.00121908
0.000475794
0.00125922
0.00118909
0.00143688
0.0013818
0.00179767
0.00147243
0.00153179
0.00143456
0.00123695
0.00130677
0.00112123
0.00086239
0.00120496
0.00247209
0.00296421
0.00016684
0.00127888
0.00299024
0.00116693
0.00358078
0.00264758
7.22529e-05
6.61502e-05
0.00332327
0.0028189
0.00159341
0.00118544
0.0061484
0.0021289
0.0013494
0.00121295
0.00137422
0.00161538
0.0054837
0.00772434
0.00529609
0.00773722
0.00586889
0.00784264
0.00532299
0.00200482
0.00197921
0.00217489
0.00141891
0.00154197
0.000999461
0.00139785
0.00643606
0.00145777
0.0070352
0.00151266
0.00646147
0.00146674
0.00663365
0.00505894
0.00797601
0.00505103
0.0081666
0.0052287
0.00811439
0.00510894
0.00204008
0.00218406
0.00208153
0.00154017
0.00160549
0.00140365
0.00156543
0.00681115
0.00148827
0.0070425
0.00144998
0.00654691
0.00147869
0.00674711
0.00501992
0.00802873
0.00504788
0.00821829
0.00510095
0.00816811
0.00520359
0.00203929
0.00210234
0.00219291
0.0015956
0.00148864
0.00157965
0.00153839
0.00703076
0.00144897
0.00701653
0.00148564
0.00674666
0.0014785
0.00676504
0.00505088
0.00805136
0.00536235
0.00821843
0.00511972
0.00812214
0.00545485
0.0018998
0.0022016
0.0021323
0.00153344
0.00147935
0.0014629
0.00056
0.00693664
0.00145268
0.00699667
0.00146364
0.00675225
0.00101179
0.00722263
0.00557959
0.00826979
0.00619242
0.0082801
0.00567728
0.00859943
0.00698696
0.00192051
0.00214008
0.00331334
0.00143984
0.000589029
0.00711349
0.00118319
0.00730192
0.0068008
0.0031399
0.0032812
0.00856968
0.00755886
0.00634261
0.00660881
0.00325217
0.00360287
0.00199204
0.00179782
0.000699886
0.000680584
0.000827699
0.000865979
0.00306704
2.59605e-05
0.00124047
0.00242964
0.000641299
6.27662e-05
0.00354856
0.000968342
0.00381435
0.00175949
6.18269e-05
8.91819e-05
0.00149582
0.000975858
0.00281317
0.00345813
0.00117261
0.00138195
0.0014372
0.00133208
0.00182741
0.00163414
0.00148926
0.000931689
0.00152572
0.00318021
0.00250857
0.00425954
0.00125654
0.00427056
0.00165149
0.00144077
0.00142146
0.0017005
0.000737882
0.00133846
0.00179167
0.000787461
0.000797309
0.00162767
0.00194411
0.000848808
0.00130538
0.000981647
0.000998554
0.00139127
0.0023634
0.00154642
0.00284995
0.00271782
0.00437196
0.00163571
0.00429924
0.00160669
0.0018502
0.000763764
0.0018503
0.000563736
0.000798193
0.000784562
0.000576325
0.00120753
0.000834402
0.000998572
0.00130634
0.000993954
0.000893831
0.00120164
0.00144695
0.00294279
0.0013613
0.00283685
0.00261681
0.00432883
0.00159665
0.00368936
0.00172853
0.00183506
0.000560602
0.00203828
0.000796465
0.000580152
0.00120529
0.000717549
0.00117549
0.00130596
0.000981173
0.00113501
0.00107754
0.00121151
0.00109609
0.00135185
0.00119153
0.00140303
0.00316886
0.00275648
0.00475558
0.00172221
0.00458573
0.00146102
0.00191079
0.000826891
0.0013717
0.00156052
0.000800991
0.000976247
0.00155533
0.00186374
0.000942507
0.00111906
0.00168517
0.0022646
0.00101011
0.000667518
0.00145287
0.00291506
0.00149867
0.00285696
0.0030517
0.00469646
0.00141889
0.00385946
0.00126182
0.00125388
0.00149559
0.00137324
0.00139986
0.0014752
0.00178772
0.00140087
0.00140138
0.0016103
0.0020494
0.00140488
0.00116574
0.000684532
0.00137169
0.00239275
0.00145634
0.00209256
0.00351546
0.0011588
0.0026562
0.0035729
0.00145115
0.00127756
0.00359263
0.00107603
0.00141286
0.00128105
0.00158711
0.00108747
0.00168981
0.00119889
0.00163526
0.00150614
0.00100019
0.000252557
0.00493041
0.00291245
0.00297116
0.00288456
0.000255457
0.000365154
0.00444389
0.00306574
0.00393901
0.0030803
0.00448027
0.00292331
0.00177952
0.00542177
0.00209757
0.00303629
0.00258448
0.00143935
0.00202446
0.00290368
0.00237377
0.0029785
0.00259692
0.00151228
0.00134541
0.00285958
0.00243459
0.00303592
0.00235247
0.00178127
0.00143849
0.00124386
0.00305668
0.00260378
0.00304927
0.00262745
0.00198213
0.00117265
0.00120092
0.00301438
0.00266701
0.00303903
0.00265463
0.00142
0.00128866
0.0018853
0.00308352
0.00256325
0.00306074
0.00259481
0.00135056
0.00189646
0.00127048
0.00305311
0.0026066
0.00304041
0.00265018
0.00118148
0.00126418
0.00169858
0.00297703
0.00250897
0.00301361
0.00248869
0.00167294
0.00153534
0.00160713
0.00309307
0.0026309
0.00305531
0.00260401
0.00126346
0.00174056
0.00133475
0.00305102
0.00266341
0.00305056
0.00263463
0.00170498
0.00115023
0.00162703
0.00302147
0.00249418
0.00297733
0.00253209
0.00160513
0.00154221
0.00155802
0.00306158
0.00260615
0.00306929
0.00259561
0.00130749
0.00157305
0.00175124
0.0030326
0.00267553
0.00309065
0.00267431
0.00140681
0.00152969
0.00201801
0.00304078
0.00269242
0.00301699
0.00271552
0.00164839
0.00156865
0.0020439
0.00310834
0.0026101
0.00308589
0.00261227
0.00171027
0.00361617
0.0011225
0.00333936
0.00269755
0.00358162
0.00244995
0.00198402
0.00120804
0.00108966
0.00299677
0.00267685
0.00288184
0.00246826
0.00153947
0.00130763
0.00241983
0.00307249
0.00243502
0.00291522
0.00249619
0.00412489
0.00284154
0.00514116
0.00143325
0.0028646
0.00417855
0.00286798
0.00513656
0.00141639
0.00514211
0.00169272
0.00279331
0.00415304
0.00276702
0.00515346
0.00168301
0.00515071
0.00159609
0.00278091
0.00408733
0.00268069
0.00521554
0.00156351
0.00513435
0.00122554
0.00300261
0.00410635
0.002766
0.00476625
0.00127378
0.00343469
0.000501942
0.00267916
0.00381479
0.00256261
0.00384587
0.000467855
0.00366003
0.000583941
0.00294939
0.00838815
0.00387418
0.00828283
0.00614049
0.000517528
0.000204094
0.000918212
0.000493738
0.000929494
0.00384895
0.00857829
0.00377194
0.00848435
0.00616355
0.0085447
0.0062791
0.000431929
0.00101428
0.000544138
0.000262455
0.00020414
0.000233316
0.000346887
0.00145268
0.000996502
0.00148169
0.00378291
0.00857064
0.00380222
0.00855321
0.00629099
0.00853854
0.0062581
0.000492155
0.0010571
0.000531612
0.000237061
0.00027016
0.000228213
0.00044527
0.000259572
0.000420463
0.00152681
0.000970619
0.00150346
0.00384697
0.00852371
0.00391805
0.00850568
0.00620616
0.00841701
0.00608782
0.000526848
0.000725603
0.000213632
0.000264033
8.61623e-05
0.00150367
0.000813619
0.000914227
0.00399792
0.00806849
0.00574542
0.0084142
0.00602495
0.00855528
0.00663757
6.68504e-05
0.000327974
0.00101706
0.000186987
0.000858101
0.00572442
0.00313663
0.00383933
0.0078726
0.007522
0.00334015
0.00347692
0.000435991
0.00194148
0.00231399
0.00390318
0.00122758
0.00053678
0.00300212
0.000103693
0.000734089
0.00133634
0.000736987
0.000364027
0.000554531
0.000651733
0.00209307
0.00138276
0.00127235
0.00190325
0.00143919
0.00154976
0.00547176
0.00445506
0.00116507
0.000959607
0.00506495
0.00535889
0.00110152
0.00203308
0.00159128
0.00158413
0.00564472
0.00496012
0.00127176
0.000966733
0.00550882
0.00572179
0.00112074
0.00203952
0.00159476
0.00158443
0.00567044
0.00514786
0.00132032
0.000968938
0.00566014
0.00574512
0.00113444
0.00196946
0.00159356
0.00157861
0.0054304
0.00490998
0.00122163
0.000961692
0.00535731
0.00564548
0.00109716
0.00170548
0.00156792
0.00147895
0.00503724
0.00459013
0.00109253
0.000959214
0.00502237
0.00530924
0.00115921
0.000227236
0.00257672
0.00214533
0.000230359
0.00246207
0.00107705
0.00316333
0.00485123
0.00121919
0.000336348
0.00123186
0.00316333
0.000437938
0.00133563
0.000733108
0.000417268
0.00143224
0.000228103
0.00028831
0.00081404
0.000655409
0.00203346
0.000618368
0.001568
0.00194776
0.000704846
0.00103979
0.00342684
0.00277604
0.00734341
0.00648979
0.00294728
0.00224156
0.00797611
0.00641915
0.000846445
0.00157801
0.0057089
0.00330779
0.00274327
0.00683268
0.00751877
0.00669753
0.00768281
0.00302932
0.00742474
0.00244151
0.00138777
0.000313986
0.00272539
0.00188389
0.000241212
0.00151181
0.00187939
9.54748e-05
0.000415062
0.00051086
0.0062521
0.00151609
0.00645573
0.00337047
0.00316492
0.00388974
0.0034258
0.00660272
0.00847627
0.00658925
0.00744382
0.00317577
0.00809139
0.00376562
0.00101949
0.000193149
0.00257988
0.00186157
0.000181251
0.000837128
0.00236586
0.000146198
0.000231096
0.0064708
0.00159682
0.00595165
0.00412803
0.00342032
0.00438462
0.00359132
0.00642637
0.00851063
0.0066631
0.00840249
0.00387781
0.00814472
0.00353595
0.000997349
0.000113337
0.00249109
0.00232532
0.000174373
0.000986313
0.00245742
0.000119301
5.44566e-05
0.00598843
0.00155647
0.00604506
0.00279359
0.00361702
0.0047355
0.00358576
0.0063958
0.00776565
0.00699708
0.00750268
0.00358905
0.007438
0.00296828
0.001225
0.000184706
0.00275496
0.00233644
0.000197831
0.00100169
0.00192578
0.000252588
0.000185949
0.0063668
0.00133963
0.00698014
0.00364037
0.0034746
0.00461885
0.00362711
0.00684055
0.00776931
0.00727923
0.00773872
0.00315662
0.00776943
0.00290355
0.00158671
0.000247208
0.00266676
0.00190097
0.000322286
0.00141913
0.00191237
9.99686e-05
0.00073917
0.000520883
0.00727565
0.00344664
0.00355002
0.000342844
0.000396166
0.000691127
4.01095e-05
0.00037587
6.90869e-05
0.000454607
0.00433392
0.00106062
0.00333671
0.00363692
0.00334943
0.00274586
0.00162384
4.76002e-05
0.00132005
0.00067347
0.00119737
0.00103672
0.000677757
0.00100585
0.00121529
0.000948562
0.00169958
0.000417309
0.00273772
0.00184666
0.00334797
0.00270362
0.00395893
0.00224726
0.000734886
0.00300843
0.00189835
0.00300827
0.00288691
0.00312863
0.00224608
0.00297873
0.00316035
0.00629188
0.0061561
0.00264057
0.0045782
0.00318033
0.00312428
0.00144495
0.00628872
0.00218843
0.00646532
0.00249127
0.00310962
0.0015742
0.00427509
0.00294513
0.00448806
0.00311706
0.00251125
0.0016461
0.00413995
0.00186406
0.00667835
0.00259221
0.00675239
0.00263814
0.00177432
0.00143039
0.00115342
0.00173896
0.00183562
0.00125172
0.00150155
0.00310381
0.00164064
0.0013549
0.00295308
0.00127153
0.0039528
0.00296425
0.00471232
0.00146236
0.00478745
0.00311385
0.00282925
0.00310574
0.00302418
0.00186294
0.00381645
0.00184259
0.00674667
0.00266226
0.00675755
0.0026468
0.00181495
0.00183046
0.00124556
0.0015347
0.00189164
0.00183864
0.00153682
0.00167551
0.00164024
0.00159914
0.00138996
0.00154299
0.00168077
0.00139314
0.00291951
0.00150666
0.00479598
0.00311795
0.00303585
0.0031083
0.00283583
0.00177274
0.00340552
0.00322176
0.00668711
0.00262148
0.00648344
0.00245846
0.00480795
0.00148196
0.00128128
0.00429029
0.00164571
0.00339756
0.00416063
0.00486574
0.00144373
0.00138242
0.00426263
0.0019029
0.00346311
0.00394283
0.00431147
0.00119696
0.0033925
0.00313691
0.00253222
0.00294776
0.00453177
0.00317343
0.00337898
0.00251343
0.00643814
0.00225559
0.0080915
0.00488574
0.00329781
0.00385226
0.00277721
0.00265707
0.00467248
0.00615451
0.00610032
0.00277035
0.0036297
0.00273951
0.00552402
0.00216727
0.00863307
0.00562544
0.00183302
0.00441209
0.00287169
0.00275251
0.0023043
0.0083753
0.00579115
0.00271652
0.004548
0.00268822
0.00411418
0.00816679
0.00651357
0.00348305
0.00281623
0.00275508
0.00885547
0.00671138
0.00838868
0.00644879
0.00347781
0.00272481
0.00292799
0.00905441
0.00666891
0.00875936
0.00649368
0.00126365
0.00169987
0.000951892
0.00159438
0.000447188
0.00147007
0.000141576
0.00127847
0.000319919
0.00173955
0.00166378
0.00116608
0.000646913
0.00163171
0.00171521
0.000517531
0.00154289
0.00135872
0.000203506
0.000495831
0.00132129
0.00157519
0.00046998
0.00161457
5.87649e-05
0.0018445
0.00156013
0.00141816
0.00147225
0.00166108
0.00139486
0.00160436
0.00149896
0.000184148
0.000258493
0.00146538
0.00170592
0.00154488
0.00132094
0.000254154
0.00125939
0.0015858
0.00174216
0.00109013
0.00138312
0.00182463
0.000213969
0.00191058
0.00123507
0.000750071
0.00175179
0.00122809
0.000277019
0.00175753
0.00155288
4.95615e-05
0.000525605
0.00152381
0.00179552
0.000254009
0.00184297
0.00138135
0.000776699
0.000590307
0.00112863
0.00177702
0.000314076
0.00122774
0.00151174
0.00134669
0.000773797
0.00154839
0.00145193
0.00153758
0.00212508
0.00332918
0.000901331
0.00190381
0.00142247
0.00375736
0.0015886
0.00119644
0.00161247
0.000712609
0.00153785
0.0017487
0.00189002
0.0011818
0.00146678
0.00123877
0.00052859
0.00066702
0.00166299
0.00127514
0.00109442
0.00261553
0.00511162
0.00148242
0.00123806
0.00441597
0.00352595
0.00112462
0.00182355
0.00127239
0.000683249
0.00110042
0.00127877
0.00203433
0.00103731
0.00165836
0.00141131
0.000245757
0.000718604
0.00162297
0.00137684
0.000388574
0.00157743
0.00125689
0.000257082
0.000531434
0.00155869
0.00127605
0.000336107
0.00173338
0.00140132
0.000752943
0.000880576
0.00140593
0.00177185
0.000270243
0.00161139
0.00124447
0.000532971
0.000870213
0.00125831
0.00164206
0.000389074
0.00184368
0.0014707
0.00051803
0.000590776
0.00179838
0.00145885
0.00100827
0.00175263
0.0013752
0.000566526
0.00116292
0.0017495
0.00138481
0.00101981
0.00185347
0.00142696
0.000621902
0.00106002
0.00144648
0.00185301
0.00105701
0.00176397
0.00138427
0.00113271
0.000969964
0.00138864
0.00176751
0.00106263
0.00361298
0.005069
0.00120417
0.00168462
0.00359728
0.00510482
0.00122495
0.00207441
0.00124036
0.00103217
0.000702917
0.00207407
0.0012498
0.0010937
0.00346357
0.00430949
0.00169921
0.00108615
0.00498338
0.00253606
0.00122471
0.00204503
0.00125095
0.000700211
0.000880692
0.0012539
0.0018304
0.00109157
0.00182827
0.00133641
0.000893327
0.000805042
0.00181156
0.00136114
0.000863198
0.00171789
0.00124716
0.000880438
0.000749892
0.00170203
0.0012522
0.000842107
0.00182104
0.00136394
0.000801365
0.000288968
0.00137344
0.00175776
0.000823122
0.00171509
0.00127673
0.000724227
0.000268691
0.00125638
0.00168079
0.000758523
0.00185208
0.00142616
0.00107113
0.000796473
0.00185893
0.00142511
0.00110644
0.00174576
0.0013817
0.000976178
0.00113846
0.00175853
0.00138117
0.00106371
0.00184791
0.0014088
0.000773968
0.000890387
0.00142206
0.00182577
0.00114621
0.00174415
0.00137037
0.00115193
0.000936418
0.00137455
0.00173257
0.00114114
0.00177299
0.0018651
0.00102321
0.00125243
0.00117404
0.00167131
0.000539805
0.0016292
0.00129928
0.0007648
0.000271216
0.00146087
0.00129515
0.000521593
0.00181087
0.00150612
0.00129321
0.000333798
0.00154333
0.00179749
0.000497355
0.00165204
0.00124452
0.000262914
0.000213913
0.00140539
0.00159988
0.000497847
0.00164491
0.00143255
0.00025575
0.000267606
0.00165522
0.00140417
0.000240421
0.00162841
0.00132655
0.000246279
0.00025891
0.00158949
0.00131077
0.000239717
0.00185064
0.00146014
0.000257891
0.00145602
0.00151057
0.000215552
0.00188014
0.00130585
0.000249229
0.00130169
0.0016089
0.00020396
0.00168629
0.00159288
0.000805654
0.000261103
0.00177825
0.00158953
0.000432901
0.00166573
0.00137077
0.000864817
0.000895018
0.0016869
0.00133076
0.000486428
0.0017751
0.00153511
0.000256113
0.00020119
0.00152018
0.00166125
0.00040729
0.00180016
0.00120049
0.000935357
0.000248722
0.00114111
0.00173486
0.000463089
0.0025805
0.00141969
0.00121691
0.00146912
0.00157061
0.00243038
0.00182518
0.00158
0.00165781
0.000255589
0.000636498
0.00173799
0.00144864
0.000190453
0.00149256
0.00134849
0.000396307
0.00150249
0.00158943
0.00013849
0.00187708
0.00133571
0.00050465
0.00137738
0.00128407
0.000155884
0.00175702
0.0017687
0.00149436
0.00131254
3.1194e-05
0.00199574
0.00149853
0.00154974
0.00151648
0.00206924
0.00142472
0.00157787
0.0014425
0.00213459
0.0018305
0.00166647
0.00196784
0.00215267
0.00171657
0.0015401
0.00183001
0.00171664
0.00187041
0.000167051
0.00168598
0.00121932
0.00160518
0.00128757
0.000228243
0.000437401
0.00182908
0.00120335
0.00191523
0.00149185
0.00135689
0.00234453
0.00155892
0.00111124
0.000413605
0.00119984
0.00218709
0.00157727
0.0015429
0.00158085
0.00052903
0.00127608
0.00150652
0.00124404
0.00159139
0.00152426
0.000515482
0.000948775
0.0015837
0.00158249
0.000911258
0.00149634
0.00133614
0.00026402
0.00129743
0.00133706
0.00207149
0.00172456
0.00142883
0.00164876
0.00150523
0.00131507
0.000263772
0.0013043
0.00121842
0.00207815
0.00146828
0.00162176
0.00129895
0.00189448
0.00173355
0.00191138
0.00147258
0.00179451
0.0017559
0.00178774
0.00169897
0.00187394
0.00137426
0.00143515
0.00184485
0.00177046
0.00171803
0.0016786
0.00179357
0.00231065
0.00156338
0.00240573
0.0015943
0.00238764
0.00122541
0.00244797
0.00157091
0.00228109
0.00154924
0.00157013
0.00223499
0.00229925
0.00128847
0.00145803
0.00183734
0.00164438
0.000954127
0.00165069
0.00180373
0.0017554
0.00169555
0.00117619
0.00137379
0.00134469
0.001212
0.00179385
0.00114293
0.00140645
0.0014042
0.000562337
0.00127061
0.00115303
0.00104846
0.00158817
0.00118566
0.000572128
0.00189912
0.00113247
0.000865939
0.00149925
0.001716
0.000846107
0.00196013
0.00151129
0.000608874
0.00138856
0.0015055
0.000906613
0.00199823
0.00129954
0.00117356
0.0015156
0.00088503
0.000991851
0.00126118
0.000926278
0.000389892
0.000583829
0.00141071
0.000438137
0.000725447
0.00146517
0.00148943
0.000419412
0.000527681
0.00218085
0.0027739
0.000303175
0.00055728
0.00261645
0.00219666
0.00278674
0.000594021
0.000324528
0.000331467
0.000147388
0.000625816
0.000326495
0.000252575
0.00020774
0.000203954
0.000418872
0.000167692
0.000470706
0.000241308
0.00102221
0.00136003
0.00128899
0.00132359
0.00130306
0.000567882
0.00130249
0.00101129
0.00138894
0.00180988
0.00158789
0.00150078
0.00132988
0.000967038
0.0015031
0.00116242
0.00131674
0.00146988
0.00124105
0.000728414
0.00142975
0.00119854
0.00146419
0.000483193
0.000756384
0.00114097
0.00149727
0.00150151
0.000781384
0.000760611
0.00248167
8.1283e-05
0.00231639
0.000609935
0.00226131
0.000110063
0.000477547
0.000354984
0.000771017
0.00220533
0.00233879
0.000112593
0.00224039
0.000769485
0.000110774
0.000486189
0.000492796
0.000241111
0.000267333
0.000516944
0.000957415
0.000556893
0.000489997
0.000272322
0.000533518
0.000474736
0.000209449
0.00026727
0.000236604
4.24216e-05
0.000231803
0.000240259
0.000252442
0.000894441
0.000418356
0.000247334
0.000435833
0.000368861
0.000892766
0.000498157
0.000446986
0.000990778
0.00151128
0.00146587
0.00139273
0.00120227
0.00145708
0.00147654
0.0014098
0.00143161
0.000781419
0.0015103
0.00126713
0.00149602
0.000785143
0.000780686
0.00123711
0.00148012
0.00148866
0.000685554
0.000773894
0.00221497
0.000112961
0.00234706
0.000769257
0.00220866
0.000112011
0.0004926
0.000494042
0.000775464
0.00227996
0.00234884
0.00010817
0.00222082
0.000755117
0.000111772
0.00049247
0.000463056
0.000475399
0.000274893
0.000518696
0.00106569
0.000501092
0.000533129
0.000273993
0.000453107
0.000518627
0.000241103
0.000254457
0.000227128
0.000269306
0.000219426
0.000253405
0.0002063
0.000511859
0.000850831
0.000490899
0.000257948
0.000287402
0.000393807
0.000889161
0.000351025
0.000476548
0.000989231
0.00148786
0.00148394
0.00145971
0.00163477
0.00143374
0.00147733
0.00166098
0.00140679
0.000514492
0.00146915
0.000881516
0.00152416
0.000658041
0.000463689
0.000850086
0.00143083
0.00149424
0.000343541
0.000609885
0.00232824
0.000107224
0.00217411
0.000745945
0.00252837
0.000383114
0.000455894
0.00058779
0.00281861
0.00216635
0.00265569
0.000488561
0.000359329
0.000260377
0.000456522
0.000317799
0.0006966
0.000157958
0.000392117
3.31675e-05
0.000285037
0.000322792
0.000641757
0.000205308
4.50624e-05
0.000597464
0.000162018
0.000766582
0.000941537
0.00105231
0.00142395
0.00133608
0.00129433
0.00152289
0.00119038
0.00142749
0.00137381
0.00129593
0.00117244
0.00142424
0.0012085
0.000297097
0.00144576
0.000415149
0.00135158
0.000342815
0.000265706
0.00045881
0.0016903
0.00132489
0.000265255
0.000391752
0.00293664
0.00210442
0.000519517
0.0029733
0.000235385
0.000256588
0.000368111
0.00365806
0.002041
0.0028653
0.00039002
0.000185788
0.000121523
0.000292943
4.37167e-05
0.000990079
0.00182844
0.00128345
0.00100787
0.00129237
0.000101479
0.000733973
0.000708476
0.00139813
0.000918804
0.00114387
0.00087554
0.00123243
0.00113454
0.000759491
0.000981416
0.000773002
0.000972265
0.000372075
0.00166195
0.000310151
0.00117331
0.000263589
0.000332419
0.000306909
0.00144007
0.00103275
0.00061627
0.000390344
0.00368764
0.00257886
0.000400764
0.00311161
0.000236267