/*--------------------------------*- C++ -*----------------------------------*\
  =========                 |
  \\      /  F ield         | OpenFOAM: The Open Source CFD Toolbox
   \\    /   O peration     | Website:  https://openfoam.org
    \\  /    A nd           | Version:  10
     \\/     M anipulation  |
\*---------------------------------------------------------------------------*/
FoamFile
{
    format      ascii;
    class       volScalarField;
    location    "0.1";
    object      omega_0;
}
// * * * * * * * * * * * * * * * * * * * * * * * * * * * * * * * * * * * * * //

dimensions      [0 0 -1 0 0 0 0];

internalField   nonuniform List<scalar> 
115408
(
9.62135
9.78798
9.86094
9.64787
9.63274
10.0067
9.67494
9.59725
9.66726
9.60653
9.54427
9.57744
9.66524
9.71666
9.90785
9.77646
9.87418
9.73086
9.91458
9.59045
9.58377
9.60033
9.8783
9.69894
9.61667
9.56037
9.58223
9.76187
9.83439
9.86295
9.58379
9.59424
9.88228
9.85291
9.86527
9.73909
13.0759
17.1939
16.1443
11.558
10.1693
9.86677
10.1453
11.8196
20.1452
12.2365
10.1455
10.0675
9.76572
9.90664
10.0126
10.1784
10.3425
10.087
10.0533
10.2329
9.81061
10.2397
12.2363
15.9445
14.784
15.9773
12.4652
10.4707
9.84279
11.5866
16.1984
11.4953
11.2366
10.704
16.2686
11.5227
10.1768
11.6627
14.2074
11.6752
10.1406
10.1183
14.5535
11.2598
16.3505
13.6261
11.1615
10.4628
18.9561
10.254
12.1548
16.5604
16.3362
12.3634
9.92745
10.0526
10.155
11.3602
12.2878
11.5516
13.6551
20.7094
11.1613
9.94125
10.5175
15.3943
11.5565
11.926
15.6256
13.6557
12.3921
11.9011
11.4224
10.4115
9.75129
10.4758
15.6531
11.8163
11.0985
12.8522
11.6164
10.9462
11.608
11.0272
9.98305
9.7218
10.6221
15.7275
12.2266
14.027
12.3327
15.5808
12.5151
11.4182
11.4917
10.2658
9.75855
10.4025
15.4481
14.1173
14.9091
11.0401
11.0475
17.915
12.5008
16.6904
10.8913
11.2434
13.9415
11.942
10.8568
10.524
10.4893
11.9427
14.6187
12.0824
11.7897
11.1296
10.7467
12.3889
13.198
14.0761
15.8429
15.1876
14.5895
14.8972
13.4868
13.2549
23.984
30.1356
26.5565
37.5645
17.1789
10.9206
10.1051
10.0058
15.0677
14.0356
23.054
29.2861
28.393
29.2506
28.9906
14.0678
15.367
10.1181
9.72782
9.89931
15.1453
13.9798
22.5209
30.9111
30.8061
29.4767
30.0951
13.8152
11.8893
9.98635
9.58999
9.87992
15.3698
13.7238
22.6958
30.1539
25.5144
26.9815
28.9463
13.7524
12.1636
10.1146
9.65382
10.1553
14.7989
13.902
23.4949
28.185
26.5416
34.1688
26.5029
34.1538
20.9584
10.2056
15.686
14.3313
24.6292
27.7557
19.07
18.9094
35.7234
16.9971
32.9536
35.8901
24.6573
20.5972
30.9688
30.9946
36.0626
33.7752
13.0615
15.8708
14.1297
176.864
27.438
12.2352
10.3018
9.81247
9.84792
13.6058
11.2823
21.6034
95.5421
80.8369
26.4307
12.1241
9.80703
9.56386
9.85124
13.992
11.2154
21.5632
78.3715
162.931
160.946
79.0672
26.3897
11.9291
9.79293
9.56177
9.82759
13.9091
11.2216
21.5949
81.5971
184.262
585.145
82.6126
26.6574
11.9617
9.78971
9.58182
9.93115
14.0806
11.2136
22.3717
110.909
119.539
27.6312
12.1719
14.3574
13.315
47.0336
187.91
30.249
46.979
145.662
74.8781
70.9305
70.6901
36.9201
16.8561
51.3092
62.9049
10.3851
10.1514
9.88748
9.74544
12.3152
12.1532
42.8266
59.88
10.3706
9.59037
9.59601
9.68108
12.1203
12.0882
42.7301
58.1294
10.3005
9.58085
9.56159
9.68236
12.1362
12.0263
42.926
59.935
10.2845
9.60039
9.59502
9.7503
12.1454
11.7987
46.5388
61.3475
10.3998
13.4843
13.2856
40.842
28.9993
57.0081
37.7481
33.7726
9.99087
12.0742
12.8541
34.6883
51.142
12.3648
9.97819
9.65336
9.74865
11.7496
11.4183
35.5241
56.2287
12.2196
9.8852
9.56545
9.74433
11.457
11.132
33.4676
52.4079
12.1576
9.88709
9.56148
9.78905
11.5373
11.3619
34.6351
55.1608
12.2276
9.88852
9.56849
9.86379
10.8905
12.3549
32.6359
56.4206
12.1919
11.3578
12.7946
28.5243
15.4611
26.8005
72.8083
124.238
39.8077
40.873
16.656
16.7941
10.1522
10.0198
13.1113
13.6027
28.0414
31.3447
58.63
59.9726
64.7015
41.3428
18.4972
10.0633
9.84829
13.3359
15.1348
32.1094
56.3747
75.4113
76.4513
56.8054
32.3479
18.21
10.0297
9.87022
12.7334
13.9301
23.3651
50.2567
68.5888
57.3542
61.3323
31.6924
18.2523
10.0263
9.83431
13.0757
15.0558
26.1173
55.9779
77.747
65.8056
58.5047
34.6017
18.2363
10.0219
9.92164
13.3248
13.0601
26.1018
65.3891
60.1438
59.5071
79.9152
34.5907
18.4669
10.0681
10.0668
12.8586
13.251
28.2283
22.7571
29.679
26.9499
14.0136
20.5597
25.3513
29.1963
27.9443
20.0465
39.8585
11.9789
11.097
11.166
11.0362
16.0234
11.1881
10.0747
9.65982
10.863
15.6857
12.6612
11.0783
10.7933
10.8412
11.032
12.5892
10.7454
9.97438
9.62347
10.6659
13.4859
11.7587
10.8892
10.7375
10.7652
10.8079
11.7207
10.6723
9.96481
9.61341
10.5798
13.1418
11.5193
10.8589
10.7153
10.7611
10.7808
11.8654
10.6616
9.94912
9.62471
10.584
13.3899
11.6463
10.8796
10.7343
10.7724
10.8884
12.5759
10.731
9.97146
9.66014
10.8071
14.9714
11.9865
11.0418
10.814
10.8754
11.1989
12.9416
11.0948
10.0164
9.88097
11.0095
17.3855
12.2155
11.7011
11.1841
11.307
12.2437
14.2994
12.3103
10.5589
10.5641
9.61803
9.59215
9.60894
9.58068
9.80711
9.66444
9.59815
9.68587
9.75515
9.59792
9.59706
9.57009
9.58314
9.58874
9.7961
9.62067
9.60281
9.64318
9.70964
9.58115
9.58508
9.5652
9.57401
9.6044
9.80258
9.61855
9.59623
9.64774
9.70973
9.57824
9.58371
9.56429
9.57224
9.60089
9.80127
9.61382
9.6062
9.6538
9.70486
9.58319
9.58525
9.56584
9.5786
9.58727
9.79423
9.6219
9.58989
9.6794
9.74579
9.58716
9.60129
9.57673
9.59316
9.57588
9.80645
9.64877
9.62443
9.79464
10.0468
9.58689
9.58534
9.5741
9.57078
9.66302
9.58586
9.58241
117.626
107.475
55.225
29.3856
30.2019
66.9373
140.855
34.5283
26.4592
34.5189
151.849
160.937
29.0355
24.0922
35.8762
111.935
160.943
88.6895
41.6525
29.5389
29.7655
102.156
54.9567
68.1594
35.8335
34.7046
30.1399
33.7078
65.7453
119.902
54.3352
89.8036
38.7822
30.3713
35.1886
138.639
159.933
82.8526
83.8302
35.8623
27.9159
36.1572
156.433
75.047
81.7206
76.0455
30.9208
29.7654
30.0668
62.0994
36.0577
69.0451
38.1285
35.7677
30.9703
35.7888
55.4067
92.7027
63.6149
94.5045
36.4179
30.556
36.1288
84.2039
83.0398
93.642
118.894
37.2324
29.5232
37.8662
80.9961
75.1008
109.582
70.8081
30.2392
30.4505
30.4019
68.3773
37.9711
66.6686
37.4994
30.72
31.0442
40.2194
59.4885
100.442
79.5586
623.651
31.9852
34.8218
27.2777
103.892
128.752
36.0052
26.6719
42.2729
118.333
79.8039
89.9209
30.5295
31.0969
31.3744
66.5237
35.9365
89.0928
38.091
35.4076
31.6534
26.1415
77.4501
123.806
23.8238
20.1524
25.3992
37.7341
20.1739
26.2843
91.8951
336.821
39.1748
32.8373
38.9124
87.5486
39.1374
184.16
37.0366
24.2653
29.1402
28.0889
142.938
124.601
24.3913
21.2096
25.3488
29.47
19.2562
24.1325
531.339
164.393
34.8891
236.818
134.941
37.4791
32.2827
35.5444
23.5219
77.6183
62.0126
46.2946
35.7838
28.2643
39.6103
113.481
59.1424
69.5902
27.5041
38.9574
36.8074
65.4213
72.4879
29.9019
39.3595
31.1503
128.01
65.8555
38.3266
45.4111
71.4853
75.9441
42.6019
500.18
234.872
57.8566
68.8711
50.3353
59.2885
21.5292
80.0596
40.7025
92.8283
252.809
97.4277
47.0102
85.9447
57.5735
63.8154
67.8031
29.8351
27.001
26.7052
57.5728
14.6438
53.8052
15.5849
81.4108
21.5835
62.0809
39.4156
38.3008
78.0751
161.905
162.161
159.487
89.5509
161.354
82.3506
57.0127
79.5433
57.481
68.5081
65.1108
25.6063
26.3604
25.5386
53.2406
15.514
50.8987
14.6659
61.833
21.6188
65.5069
38.1554
38.5828
162.213
82.8524
169.921
159.089
171.664
492.22
81.2946
266.391
84.4181
57.2582
80.079
57.732
65.7719
70.5195
25.399
26.3414
25.341
50.9026
14.8363
52.5605
15.6801
68.8759
21.6045
99.7897
39.26
39.7051
175.478
111.331
89.9019
120.419
57.0825
111.194
57.932
68.8092
59.7968
25.1372
27.3236
25.4996
52.5924
15.1264
55.8148
16.5616
97.1089
49.0198
177.687
39.6512
38.9144
151.764
133.715
59.8206
61.0718
62.5248
26.4996
44.6893
27.6945
56.5495
16.1635
196.794
29.2023
132.861
35.9016
26.9933
165.604
425.156
39.2416
69.2105
27.5383
66.3318
119.048
68.0198
70.0123
57.1926
61.8916
50.8805
62.285
58.1808
62.8818
69.5097
64.2938
70.3832
86.1873
70.0706
38.6279
31.9446
204.766
64.854
31.9361
71.9781
26.8557
36.3387
256.06
311.235
29.6227
34.0342
55.1429
68.0221
15.9045
42.3876
76.6509
68.0145
63.9909
52.4389
18.2062
12.6831
18.7977
12.5901
16.731
12.4307
18.6408
43.358
45.4125
40.5187
75.4108
66.5903
76.4888
67.3266
14.7937
60.153
13.5142
54.9318
14.7067
58.9534
14.3259
19.6572
12.2579
19.6548
11.9059
18.9954
11.9997
19.494
42.8102
40.1409
42.1553
65.8429
61.4687
67.8627
64.6548
13.9634
58.2318
13.4972
59.9101
14.5206
59.4805
14.0855
19.7844
12.1744
19.6733
11.8405
19.511
11.9131
19.1311
42.8498
41.6054
39.8243
61.5138
66.3236
64.2457
65.3466
13.5196
59.9723
13.5454
59.2413
14.0882
59.4433
14.0469
19.6772
12.1494
18.587
11.8221
19.4258
11.9548
18.1083
45.5641
39.7366
41.9969
65.7936
72.3992
67.2441
108.837
13.7072
61.2677
13.5905
59.8293
14.0771
75.7498
13.1558
17.8417
11.7467
16.0109
11.6869
17.3839
11.1908
13.8749
45.4911
41.9826
27.5939
74.3628
103.751
13.3657
67.0957
13.0179
14.4949
30.3204
27.7813
11.2131
12.7264
15.2639
14.4872
27.9322
25.6493
44.9329
48.6812
95.683
107.63
90.4158
83.4429
30.6054
571.902
68.1412
38.0062
116.896
282.434
27.6424
89.4163
25.6119
50.7631
277.464
237.678
68.7026
88.2822
33.3049
27.4563
72.7575
66.5138
61.2866
69.006
50.3525
57.2743
57.409
77.7404
58.5252
29.3898
35.9938
21.9605
67.5075
22.0862
52.0005
64.5537
61.4897
54.9289
91.6945
68.6568
50.263
91.729
90.4114
56.0857
46.7851
90.2515
66.3986
74.5751
76.7215
64.4834
38.9994
58.0315
32.7537
33.1874
21.6201
52.3536
22.8748
52.8337
51.0376
89.7134
52.2424
105.288
90.0336
91.398
106.075
62.0526
91.9524
78.8932
59.9384
75.458
80.8846
68.195
60.0021
31.7956
61.3403
33.4474
34.1996
22.7408
52.9788
26.2458
49.9177
52.6429
105.696
46.6209
86.1236
105.765
62.1698
94.3077
64.6681
59.9167
76.065
68.5444
73.3716
67.9036
72.2125
61.6392
67.1698
60.9857
29.7857
33.0584
19.8932
49.9535
20.378
57.8314
49.4173
84.8037
62.0046
56.2699
89.8592
75.9365
59.2537
48.8671
81.3371
72.4942
54.412
43.0009
76.1301
98.9905
59.608
32.1023
62.1862
32.8697
30.5357
19.8482
59.6078
24.4867
67.7672
67.9496
58.8626
66.1002
62.1056
62.8173
50.2697
63.7134
60.228
56.3255
47.1534
61.7654
76.4678
95.0632
67.531
38.5359
65.7687
42.9975
26.8608
73.1305
35.915
26.8052
63.4323
67.7025
27.7597
76.4647
65.3732
65.1507
60.543
75.5118
53.7091
73.2225
58.3254
62.6397
86.4458
162.687
19.6036
32.0536
32.3899
32.9944
167.237
140.098
22.306
30.8589
25.0087
31.0066
21.898
32.8313
51.9524
18.6136
47.8114
32.2346
38.9381
63.945
46.6855
34.3509
42.1828
33.2877
38.4699
60.7018
61.7302
34.975
38.6341
32.4609
42.3883
51.5182
61.6723
68.0837
32.052
38.2377
32.1258
37.8821
47.2024
75.8871
71.619
32.6681
37.1513
32.2813
36.9999
60.9922
70.9787
50.8551
31.7132
39.5015
31.8971
38.2395
64.1851
50.4072
65.9513
31.9797
37.6918
32.1076
37.2098
72.415
68.7833
52.202
33.0992
38.7701
32.6303
38.789
55.8003
58.3102
57.0147
31.3772
37.6698
31.9312
37.8168
66.0345
53.4179
64.2248
31.957
36.9676
31.9713
37.1805
51.9947
75.4782
53.8537
32.5132
38.7202
33.04
38.383
56.9677
58.0961
59.3718
31.8419
37.7466
31.7942
37.9263
65.8485
57.9372
52.2275
32.2249
36.9041
31.5673
36.9214
62.2906
60.1432
46.576
32.1736
36.3988
32.5112
36.2994
56.5177
58.429
48.1621
31.3033
37.8117
31.6105
38.5172
53.3073
26.3412
76.3042
29.1042
36.7891
27.0633
40.516
47.0178
74.1615
74.9016
32.8358
36.9168
34.3227
40.0017
60.7096
67.3517
39.2049
31.8687
40.7489
33.8964
37.4139
23.0655
34.4598
18.4418
58.0046
33.8371
22.7913
34.0929
18.4453
58.6644
18.4279
50.7946
35.0898
22.9172
35.5123
18.3875
51.143
18.3967
53.2838
34.9745
23.3145
36.9292
18.1689
53.4942
18.4764
64.0303
32.2588
23.1924
34.9955
19.9163
61.8137
28.1955
115.092
35.7758
25.1432
37.4389
25.2994
121.353
26.5353
105.641
32.5101
11.5016
24.9879
11.6707
15.7883
112.121
186.146
79.4705
111.711
77.2461
25.135
11.2429
25.6433
11.3603
15.6564
11.271
15.3199
123.482
77.5892
106.548
163.99
186.928
166.793
140.326
58.3006
79.4534
57.5671
25.5637
11.2532
25.4422
11.2586
15.2931
11.2802
15.3857
116.551
79.2254
108.608
164.889
162.573
167.864
119.99
161.511
124.329
56.5135
81.5014
57.2102
25.1314
11.3183
24.7535
11.3293
15.5372
11.4623
16.023
109.501
94.7228
197.072
156.08
351.969
56.6205
86.4299
78.9304
24.3111
11.9814
16.9557
11.4663
16.2547
11.2515
14.7313
328.687
144.511
73.4863
235.671
82.4463
16.99
30.469
24.7531
12.3608
12.8583
28.4902
26.0883
123.549
43.0217
39.4825
24.3236
63.8051
111.518
30.5485
282.846
88.4018
69.372
96.5555
140.742
108.661
95.7289
42.2716
68.2632
67.4693
45.5259
59.0918
54.9672
17.8634
21.3679
70.3609
86.8177
18.9842
18.0816
85.3218
42.9686
53.6349
53.8804
17.237
19.135
64.8483
86.0685
17.39
16.8817
84.3217
42.8188
53.5901
53.9
17.12
18.3722
63.3478
85.8635
16.9122
16.7522
83.6799
44.0656
53.6414
54.009
17.9341
19.2956
67.5504
86.4541
17.9112
17.0882
86.0677
50.5151
54.505
57.5984
19.5151
20.719
74.8228
86.7045
19.2531
18.2888
81.726
162.57
34.4331
41.0568
161.183
36.0779
74.388
30.1304
19.7228
64.2788
144.209
64.6954
28.707
122.738
61.5082
96.1278
132.451
55.5662
196.81
166.129
90.7963
102.696
46.2833
123.919
58.8977
45.6722
107.145
75.0484
27.7125
35.2538
13.215
14.7426
34.1671
44.1955
12.075
14.9186
82.4875
52.8466
16.9632
30.0666
33.8334
14.2298
12.9589
14.4788
12.5637
31.5907
13.0619
40.181
56.2575
134.436
33.4878
47.7372
164.969
52.948
47.5476
291.378
118.871
110.37
15.4076
54.667
14.8921
28.9549
29.5441
25.3511
27.2571
14.5893
11.3609
14.6206
13.1024
32.9287
11.9656
25.3451
71.8101
193.795
34.688
48.6498
193.348
81.9141
39.266
248.35
171.487
14.8626
52.4639
16.0669
24.1136
27.2929
22.8063
26.318
14.9818
11.3102
14.4485
11.4975
24.6269
11.8832
26.9109
73.0218
323.647
36.0036
39.7652
190.365
73.3725
37.5815
281.319
493
15.9819
53.3471
15.8237
33.5308
26.0591
21.2495
26.3533
15.0597
12.4982
13.8838
12.9906
26.8774
13.0383
32.2603
62.1713
192.438
32.6629
39.8138
175.638
72.9086
46.7471
172.003
227.667
15.0722
60.6951
13.7564
27.0448
26.9843
21.5086
25.8743
14.193
12.4721
13.3062
12.4659
30.1424
12.4077
33.2059
50.7876
161.61
34.83
46.8774
132.989
55.4685
46.7375
275.986
89.1321
108.599
13.2376
28.119
26.2641
122.428
131.081
96.9401
520.571
129.735
296.949
116.333
22.2271
73.2471
28.9599
26.3435
29.2062
36.6235
52.4253
356.936
68.2372
96.145
74.6649
74.5358
98.1699
73.8856
72.6716
81.1149
55.7049
129.36
35.0588
50.2547
29.1863
35.5312
24.6495
43.6958
88.1052
33.2361
49.7988
32.2595
33.5221
31.7
43.8338
31.9073
30.2579
15.6341
15.6092
38.7074
21.5067
29.8451
30.6881
61.2143
15.7803
45.018
15.3772
40.0248
30.8249
57.5643
22.0472
33.6952
22.031
31.4352
37.9537
54.5337
23.1715
48.658
14.819
37.9862
14.6362
37.2038
49.5573
58.3731
76.1083
56.557
46.7146
64.1205
63.3419
29.7178
55.0721
65.6654
33.0008
66.8206
24.1791
33.1729
20.0726
61.4619
19.905
31.4069
34.0518
31.4601
31.741
48.5297
25.0242
49.764
14.6412
36.7955
14.6148
37.0642
48.5315
46.8709
69.9983
61.5689
45.5654
48.0164
61.5862
51.6035
52.4423
56.136
69.1495
55.2208
51.46
68.9627
31.434
59.9975
19.75
31.3017
31.554
31.4232
33.9735
51.4005
27.9654
29.6154
14.7907
37.5277
15.3032
40.5627
19.8094
56.9977
71.0218
23.3927
52.9571
27.3271
23.8332
19.5324
59.7303
66.7236
23.4012
47.5772
26.5242
24.9857
21.8487
75.878
28.1548
31.1423
37.6029
33.5696
21.77
29.9161
28.2604
38.104
15.3785
45.0366
12.062
19.9191
28.9754
25.7013
34.1849
38.1944
21.0015
16.0167
15.7985
33.3411
26.3791
34.8642
18.1834
46.5492
11.1969
17.0045
48.9073
22.426
33.7875
36.3242
43.3814
11.5151
16.5387
35.0515
21.6437
37.6294
23.9441
11.7784
14.7204
28.0517
35.051
35.5365
10.8217
14.1051
11.5122
14.7435
28.2579
35.6358
33.6619
10.5067
14.2032
10.9096
14.6641
64.1002
51.6769
80.5624
58.4996
119.707
59.3416
248.419
67.2064
149.599
50.4848
56.2819
70.1654
99.6417
57.4761
51.0954
110.199
56.3237
65.6546
187.945
117.684
65.4565
55.09
117.319
53.326
319.436
47.9932
59.3783
61.1137
61.4716
54.3412
61.4015
53.712
62.7228
200.658
161.33
63.2025
50.837
56.5711
67.6434
163.31
69.1179
54.9167
49.9205
82.7781
59.2331
50.8495
163.526
46.1591
70.9585
88.3041
48.7264
72.7649
147.97
49.2879
61.0349
593.178
107.332
61.4668
48.314
157.338
47.3008
62.7596
86.1897
99.9054
78.2121
48.8103
143.479
65.5554
61.816
61.6987
89.7448
55.3318
65.319
55.1672
42.5573
29.1995
82.8089
47.5859
67.5375
25.3006
52.8704
66.4745
58.13
92.9594
57.3129
50.2117
51.0928
66.1147
56.5543
71.21
112.378
92.7098
52.0432
70.6701
71.1893
34.5927
18.9683
60.3652
64.4024
21.8222
26.69
68.9764
47.4587
70.7868
91.6795
71.5135
70.1223
43.4235
74.4181
51.998
67.0562
160.463
88.5109
53.0926
68.7568
122.137
54.6579
70.9666
162.379
105.307
55.4793
70.8435
140.31
50.2717
67.4607
86.2006
77.2634
66.9286
49.4671
172.933
53.844
72.4906
105.241
77.8096
71.6532
52.9418
122.47
47.575
64.8326
106.795
100.622
48.5337
65.6426
70.928
49.4634
63.2416
101.653
71.7854
49.6086
63.1721
70.9434
47.4256
67.4043
97.2484
68.4966
66.2964
47.4617
68.5675
49.0971
63.3993
73.7694
73.3271
63.1232
48.9813
68.8561
25.96
19.1788
65.8838
54.9919
26.0691
19.0396
64.9148
42.5293
73.0153
74.9718
89.6698
42.5043
72.3314
71.7899
27.1233
22.5407
54.6745
70.0225
19.5306
35.5437
64.8602
43.2144
72.0191
89.9287
82.0739
72.0221
47.2743
71.7791
47.9721
71.1347
76.4459
82.4288
48.4621
69.7435
78.3857
50.4655
72.2817
77.1125
85.985
50.9386
71.9101
79.6477
48.0994
69.5676
82.6946
153.242
69.1201
49.3813
80.9933
50.5792
70.769
88.0358
160.463
71.6366
51.5091
85.5855
47.4597
67.1885
67.9622
83.4014
47.3345
67.0566
66.4615
49.5889
63.6097
72.9333
74.6468
49.249
63.655
68.9285
47.5502
67.4732
84.9883
76.8342
67.092
48.0833
64.7659
49.6028
64.05
73.0372
74.6829
63.9241
49.9623
65.4823
49.5675
51.7639
73.2284
68.5513
67.4052
56.3595
110.95
53.1803
69.0123
90.4434
158.604
56.9793
68.0087
109.632
48.5551
62.434
65.6867
147.684
60.8442
48.7986
112.696
52.3152
69.7395
164.832
200.273
63.6347
54.1444
112.153
52.3936
66.0027
158.974
161.902
51.9144
66.4262
166.693
53.372
66.9666
162.236
160.697
54.2654
67.1056
170.609
47.1551
63.5383
165.709
63.2465
56.1794
178.555
47.4017
66.633
161.137
67.7189
54.0744
186.512
51.2626
59.3871
82.0483
159.071
49.0517
59.1206
119.117
51.9383
63.5384
78.6159
81.4866
51.4638
64.99
110.818
48.7683
61.101
161.704
183.235
61.9008
51.8443
125.976
48.1181
76.7625
77.9175
158.38
77.8911
49.8694
115.418
36.1499
67.9226
67.39
56.4915
62.5837
38.1581
47.3346
54.7108
56.4118
176.561
102.881
50.3996
63.1583
187.139
59.6385
64.9191
117.47
58.217
54.9975
256.81
46.8456
69.566
115.337
66.489
64.2956
242.803
51.4634
49.8209
56.8269
63.1389
501.492
44.4053
62.5729
55.2191
58.9966
45.0439
60.0286
55.014
61.8028
42.0812
51.8431
54.9956
45.9747
43.3682
53.3988
58.4414
50.275
49.5917
49.5611
244.665
51.2969
73.5068
53.5488
69.6325
171.737
117.88
48.0418
73.1611
44.8935
61.9542
67.0918
39.2898
55.8902
75.3926
120.178
71.9247
43.111
54.406
61.2884
54.3498
108.566
63.1907
62.2164
64.8727
53.6839
60.5917
109.546
76.4742
58.5947
54.427
79.437
55.3272
69.056
171.241
64.8855
69.1487
43.376
51.6893
60.3532
53.6129
55.1477
70.2104
171.84
71.0585
69.4
43.3203
59.0306
54.4909
66.6256
47.1795
54.1092
46.9707
62.015
50.9975
52.2483
51.1775
53.4101
47.5895
66.2456
63.5464
48.1631
51.6167
53.1256
53.9686
51.1627
40.1794
59.0742
38.4395
57.9589
39.3984
67.4372
38.6705
54.6887
40.6357
59.9322
58.8022
41.016
40.8498
66.381
58.4237
50.3804
55.1519
76.1811
52.332
50.8274
52.1807
54.04
67.2822
67.8439
65.9701
68.1773
52.9457
70.0722
59.839
61.9589
111.507
65.8608
74.8058
76.979
55.6783
75.5174
111.486
46.993
79.6946
79.3961
57.3986
53.4592
80.5225
47.7163
60.2717
103.857
60.0937
62.3856
77.4877
45.1473
70.3603
73.5583
58.8359
81.0179
73.4123
61.6352
78.1257
126.941
103.907
57.1441
119.499
90.6024
56.3564
55.0813
122.778
110.403
40.5647
34.1034
144.617
106.305
35.9294
40.4067
34.0023
102.902
139.246
139.2
255.548
101.343
149.114
170.168
204.919
199.272
120.547
249.075
111.703
173.548
72.2486
59.243
60.3905
59.7132
59.8249
103.612
62.8892
72.3659
58.2099
47.8952
51.2622
54.0383
59.0102
75.615
67.3596
65.6129
59.8732
67.9616
62.7025
88.5982
57.4806
64.1404
56.067
112.769
86.9537
67.0361
54.7829
54.7771
85.8765
86.959
37.4018
552.339
38.6313
100.487
40.3806
335.533
112.866
132.283
86.1479
41.1945
38.2607
332.135
40.6571
86.1938
334.454
111.925
111.205
182.554
164.375
110.914
82.7752
105.268
114.209
163.941
108.129
116.801
176.056
163.311
165.36
581.62
163.086
166.75
159.98
81.8876
123.444
161.471
121.49
135.86
82.2426
110.16
119.124
79.9925
57.0047
58.3212
57.2946
71.1801
54.756
54.3589
65.0426
55.4381
85.8221
54.3683
62.577
54.8004
85.6048
85.8447
63.5412
55.3538
55.0498
91.4229
85.8948
41.0232
331.701
38.1279
86.2158
41.1387
333.204
111.242
111.059
85.7872
40.0946
38.1023
338.615
40.9336
87.3882
333.712
111.275
114.917
115.713
162.463
110.088
78.4698
112.501
108.507
162.817
121.043
110.11
166.166
160.119
170.708
162.877
171.969
160.428
180.581
108.224
85.391
111.938
161.36
153.087
131.878
82.2638
137.019
115.37
79.9266
57.2239
57.7685
54.9777
58.8166
55.3442
54.1989
58.3082
56.0319
108.394
55.9642
79.8056
54.3952
94.0088
115.286
81.7242
56.2478
55.3327
137.529
100.275
39.4067
339.871
40.8673
88.2084
36.95
127.979
116.217
103.099
33.7673
40.9951
35.552
117.002
133.044
163.958
120.899
128.576
96.8395
247.671
116.523
546.215
145.948
142.954
96.3297
193.756
595.55
99.7164
249.845
88.6956
75.7698
71.1074
56.5514
58.8873
60.2543
54.198
64.0109
55.9199
68.8723
60.5032
65.2284
68.3038
64.2529
146.181
55.6271
127.92
59.1978
139.582
160.226
116.707
49.8392
62.4789
160.232
128.989
32.5363
41.6283
111.94
31.7133
169.775
172.999
133.597
25.2287
42.9739
32.0499
129.248
212.404
293.476
159.282
502.628
74.2612
46.4875
60.5583
72.4968
60.1224
330.152
88.4172
92.6361
58.3645
77.0982
66.9438
79.5386
62.7292
66.863
99.7745
74.1145
98.6176
74.7918
122.483
49.9356
146.827
66.4901
162.395
136.279
149.312
56.4911
73.9303
100.566
132.082
25.0628
34.4069
127.872
29.5977
162.099
155.969
295.988
135.985
40.9895
37.4531
148.315
38.6161
93.8072
159.637
142.697
180.995
116.834
286.833
76.6787
45.1492
57.7962
55.4511
65.4759
39.8191
54.8672
54.3995
48.5431
106.374
65.9402
49.5488
47.7431
75.9645
54.6919
52.0262
54.1199
64.897
133.26
68.0212
98.7912
66.0482
146.501
113.55
79.7285
74.7059
145.142
98.7913
67.7469
46.1499
70.9889
163.709
110.202
53.3115
73.3466
80.9994
151.238
205.113
184.121
86.5599
192.513
162.099
104.006
183.229
109.744
50.597
66.6688
71.2401
88.7194
75.2975
53.4836
88.2536
96.6488
88.5716
83.7249
94.239
83.13
93.4542
71.8366
85.6991
70.3985
48.5314
65.0042
64.1499
168.324
60.1635
69.6641
137.719
184.243
180.271
163.543
161.965
81.8582
167.382
145.908
164.658
147.403
97.8042
182.51
169.386
180.727
166.186
93.5359
77.2484
63.9795
164.776
43.9337
157.393
66.1659
72.4637
54.7078
56.2336
53.3741
85.3032
55.579
42.0159
49.4864
84.0755
46.5988
87.6332
62.2602
45.5818
147.239
143.025
158.726
95.9838
95.7239
71.8143
94.2535
97.698
69.3505
94.4449
18.4933
20.0008
86.0111
73.0785
17.0013
16.7736
85.6028
47.4868
17.2925
64.7243
16.9513
17.2715
44.1524
53.551
54.52
56.144
161.12
41.9365
54.7098
197.687
53.6727
41.9117
337.204
54.6791
197.456
92.6275
93.1709
97.9775
92.9105
97.5478
98.5511
94.0095
79.3609
95.7466
97.9066
82.8486
96.7723
17.7702
70.2591
19.3062
86.3101
18.4518
86.8032
16.7411
17.3738
85.236
17.734
58.6383
17.8779
83.7525
17.6502
17.5719
86.4092
60.3615
19.6684
86.2174
17.0419
18.231
42.7519
53.9436
53.7722
53.7123
337.482
39.8603
53.8354
338.443
54.1813
39.8639
604.254
53.7305
338.231
86.4533
94.6315
97.3732
84.1729
96.7142
97.4413
94.5987
88.9207
97.6087
97.0159
89.0361
97.8259
17.2498
64.5319
18.3768
86.1237
17.0658
85.1818
16.6054
17.4583
85.6384
19.9448
65.945
17.3146
84.8828
18.1609
17.5507
86.0037
66.3423
19.2266
85.9581
16.7979
18.0166
42.7043
53.9814
53.6708
53.8107
41.2311
53.9944
338.129
53.9148
40.385
338.238
53.7054
339.365
79.6019
94.5611
97.0165
79.7434
96.9182
97.3896
94.7729
88.6516
97.5347
96.9475
88.9327
97.8741
17.3556
63.4696
18.9214
86.4584
17.1596
85.0018
16.7587
17.4417
85.6986
19.3972
66.4263
16.9958
84.314
17.9178
17.6022
86.0392
66.4131
19.4875
85.6076
17.0047
18.0127
44.1551
54.701
53.7114
53.6544
337.407
40.0981
54.1853
251.673
55.2733
39.4962
197.499
53.6578
208.737
89.0506
95.9286
98.123
89.4854
94.553
97.376
96.5017
95.3166
96.7828
95.0275
95.4414
95.2791
18.2347
68.3067
20.4731
86.5821
18.4759
86.1084
17.7735
17.97
86.4638
19.9312
67.1915
17.3163
84.8607
18.6307
17.6932
84.5405
64.4665
17.6474
83.331
17.6335
17.4042
52.6049
48.6251
58.0146
54.5503
193.268
45.4089
55.4079
159.409
40.1127
40.8534
131.752
52.2549
156.114
94.0707
95.0123
97.5521
96.9649
18.8769
86.3474
17.4843
17.8451
18.1552
163.303
41.4344
153.931
36.2962
159.751
48.4504
147.093
193.687
161.286
162.527
35.1667
127.795
29.3984
39.3925
103.434
152.655
162.511
36.2478
33.1669
85.6405
43.0356
144.213
97.7391
103.316
160.576
160.448
86.3717
152.35
139.308
50.6279
75.9198
59.2791
107.489
80.748
94.7833
92.9049
68.8883
33.7173
67.5024
44.5183
116.711
43.1412
57.2612
88.9809
91.2503
419.814
142.645
65.476
84.5442
102.866
239.428
65.4522
67.691
60.6805
248.523
120.219
221.164
129.049
204.553
183.047
76.2523
183.78
72.257
125.206
47.1318
83.0878
158.21
60.7403
65.4433
182.274
51.505
81.8484
105.924
64.6174
100.97
149.923
86.1369
54.9715
58.4468
77.6942
149.683
110.951
115.386
56.0656
129.803
48.2865
47.6393
138.421
144.286
111.212
118.061
89.7855
144.128
526.973
111.281
159.58
93.4292
100.718
73.1122
95.6479
67.375
102.942
58.6317
68.9378
105.329
79.1275
87.5255
61.3033
120.979
57.1657
71.5488
133.385
58.2639
259.327
122.916
223.387
57.2819
466.674
69.8369
64.5339
318.413
164.527
66.9335
59.4901
105.007
60.076
60.8008
48.603
62.5376
74.0407
67.4787
47.8954
48.2339
56.0624
49.9944
45.6398
74.025
154.889
59.2689
64.2154
46.8156
41.1404
64.1012
48.2759
175.379
50.1731
71.7354
65.7159
65.7758
91.2247
99.559
78.1033
74.3602
55.4663
71.6845
83.2736
68.0661
64.2576
122.02
56.8449
81.3001
50.4443
57.8765
136.228
83.7711
51.5952
81.6218
150.675
68.8321
57.1823
33.0807
196.351
52.313
165.09
47.4667
66.3463
80.4702
90.4233
61.0054
118.311
39.1804
62.0692
47.2338
181.268
47.7359
60.6926
61.7311
49.7186
219.526
65.7164
49.4491
176.276
53.2992
68.3704
452.476
50.4647
44.5406
74.086
60.1285
63.2516
59.0841
50.2765
82.8729
67.9247
65.4302
46.6825
68.0418
87.5123
48.6556
89.6352
87.1775
82.1301
84.0872
84.958
85.5409
85.875
84.5436
49.5222
92.4363
83.1191
51.8157
53.9987
85.4954
87.7481
79.7415
85.5427
56.8769
83.7949
86.7587
99.7728
64.6679
53.171
93.6858
59.1673
123.012
144.524
104.741
71.441
55.4178
58.0746
124.063
100.738
62.3493
58.7067
91.6406
57.5237
101.681
58.4341
53.5165
131.216
53.2602
92.8802
97.8115
72.0431
34.4805
253.703
39.7645
192.894
37.9551
72.3615
93.6842
95.3733
67.2208
53.5602
50.989
68.3744
55.7426
69.5967
52.0251
49.9284
78.2097
54.7506
69.4606
48.378
87.2581
76.6322
104.199
92.445
47.6871
79.7136
88.5357
112.853
89.8898
94.215
83.8776
105.452
68.2143
85.3795
60.8444
64.1242
112.812
64.1173
68.04
61.0552
60.9463
63.6925
80.4736
62.7542
86.1516
82.8708
87.8014
86.0755
59.8455
68.2472
81.8451
83.6335
73.0592
83.1152
167.592
69.7595
54.0561
134.488
68.4902
263.932
298.473
132.309
67.9251
61.9804
65.3328
148.927
161.021
49.2708
68.3767
135.304
49.6243
163.531
67.0261
48.8526
168.261
49.0941
95.3144
96.7349
72.7669
34.8657
193.045
38.0028
191.235
37.6519
70.7112
94.9185
89.8661
71.3851
49.6086
52.8961
78.6435
55.2727
70.5685
55.0343
52.3254
67.0712
54.578
80.024
48.0453
90.2771
90.2269
112.352
92.6199
48.1798
68.435
89.6575
108.083
78.3869
92.0362
63.7809
114.097
64.1018
60.9157
61.1186
60.9897
109.829
86.6335
64.3439
60.9276
80.3177
61.087
67.3856
58.9506
73.3232
71.9623
76.5635
77.1485
58.9689
84.9104
75.2462
81.0638
82.6803
78.3201
144.14
65.8229
64.8481
176.917
60.5341
280.625
229.642
143.748
66.5953
73.3336
61.0794
157.334
165.412
49.6314
62.1815
170.571
48.4401
164.895
65.4247
48.5146
129.155
49.1379
85.9474
93.3004
58.7401
31.6728
163.972
46.834
172.79
50.4938
56.8277
83.1627
77.6286
65.304
55.0257
66.4479
66.912
55.4528
63.0048
152.007
65.1712
48.3722
474.784
61.3699
50.6193
67.2297
71.1258
77.3415
76.4982
97.1837
87.4374
287.081
63.5249
46.8151
64.9012
94.0523
48.0208
76.5455
93.7062
98.6584
78.8587
89.1304
83.4762
80.7859
96.4247
46.4515
78.3018
83.0817
47.1556
80.0507
84.0148
84.6855
78.5766
82.8486
70.371
84.3829
84.6797
40.4119
78.9145
69.7398
45.3336
83.881
134.817
121.114
58.6653
154.326
56.8519
165.557
112.089
126.388
113.786
55.5015
77.9673
94.4493
108.768
51.8697
62.5637
124.363
54.4221
105.247
60.8535
54.7926
93.1318
56.3345
64.8852
75.8652
148.031
58.915
238.036
117.94
130.433
42.5653
46.4244
143.899
47.1538
66.1546
52.2108
114.858
39.2258
146.006
210.433
270.743
48.196
63.9976
167.962
55.0013
46.3709
56.5774
46.8676
113.502
68.6624
54.1527
145.62
222.512
55.2517
58.4138
54.9462
329.271
50.3727
43.7961
61.7393
45.5522
47.3931
51.5384
47.7147
63.4285
49.4806
42.9927
52.0696
43.8292
45.6054
125.296
45.0865
60.0418
40.5318
49.2081
65.3893
280.656
45.0527
62.2872
55.9305
525.102
42.5865
103.269
76.1787
52.1327
202.269
252.469
55.4812
76.889
55.4251
92.246
50.6716
90.0331
116.468
78.9292
78.1633
58.1295
56.6683
91.6244
150.598
55.0397
78.2817
99.8844
61.1807
64.2044
128.384
55.0456
58.1339
229.4
128.598
124.611
43.1449
87.3899
60.6398
87.1807
73.7615
123.917
87.0656
53.8567
145.408
318.727
193.866
76.0626
98.7452
96.3595
116.057
99.7126
199.904
95.6323
117.042
106.442
54.4033
56.7649
164.578
65.8532
51.8903
115.89
55.7398
64.3114
196.068
140.375
54.8533
110.401
59.6486
58.1526
63.4873
66.4728
60.8953
53.4157
110.136
64.346
70.5073
56.2556
103.926
62.0449
55.8842
340.379
299.553
97.9551
237.119
70.8612
295.9
69.0571
199.009
72.135
137.228
49.4049
58.6911
179.892
52.1722
136.358
46.9551
63.6134
106.62
49.7412
87.6727
62.5972
70.2142
63.0283
126.366
53.0823
50.3109
85.9519
57.1202
70.0446
55.5362
80.3376
53.1345
50.7934
119.678
127.64
114.452
72.4257
186.618
82.7639
108.32
86.4453
58.9786
55.9483
238.752
99.4052
53.3506
86.9545
100.487
51.9535
69.3751
175.946
53.156
83.6732
58.258
67.1975
61.9916
81.0343
61.018
55.8067
87.6272
46.7284
38.0759
60.0435
56.0237
96.6388
95.628
68.4558
53.6116
175.107
135.273
67.2768
81.8372
63.3323
54.0327
144.955
61.9053
59.672
66.1895
52.664
67.0928
19.888
25.3358
64.0321
56.3278
16.0247
60.4504
79.1503
75.5622
53.0154
50.1441
247.84
69.4571
64.1831
51.0812
52.7303
223.356
58.7685
53.1908
53.3485
48.4847
71.6437
26.4912
20.1415
56.2371
63.7674
19.6244