/*--------------------------------*- C++ -*----------------------------------*\
  =========                 |
  \\      /  F ield         | OpenFOAM: The Open Source CFD Toolbox
   \\    /   O peration     | Website:  https://openfoam.org
    \\  /    A nd           | Version:  10
     \\/     M anipulation  |
\*---------------------------------------------------------------------------*/
FoamFile
{
    format      ascii;
    class       volScalarField;
    location    "0.1";
    object      omega;
}
// * * * * * * * * * * * * * * * * * * * * * * * * * * * * * * * * * * * * * //

dimensions      [0 0 -1 0 0 0 0];

internalField   nonuniform List<scalar> 
115408
(
9.6178
9.78565
9.85848
9.64408
9.62894
10.0045
9.67168
9.5933
9.66395
9.60258
9.53995
9.57328
9.66161
9.71298
9.90627
9.77381
9.87206
9.72731
9.91215
9.58684
9.57983
9.59653
9.87579
9.69577
9.61318
9.55615
9.57829
9.75883
9.83176
9.86118
9.57989
9.59038
9.8797
9.85018
9.86283
9.73563
13.086
17.1921
16.144
11.5594
10.1677
9.86479
10.1442
11.8193
20.1387
12.2406
10.1444
10.0661
9.76257
9.90476
10.0106
10.1778
10.3429
10.0853
10.0516
10.2324
9.80767
10.2382
12.2372
15.9372
14.7777
15.9652
12.4673
10.4712
9.83992
11.5871
16.1874
11.4963
11.2378
10.7099
16.2573
11.5241
10.175
11.6658
14.2065
11.6801
10.1385
10.1172
14.5629
11.2595
16.3442
13.6278
11.1622
10.4633
18.9469
10.2529
12.1559
16.5581
16.3245
12.3665
9.9254
10.0511
10.1542
11.3726
12.3034
11.5616
13.6655
20.7139
11.1617
9.938
10.5149
15.3968
11.5629
11.9301
15.6416
13.664
12.3909
11.8969
11.4234
10.4119
9.7485
10.4732
15.6571
11.8222
11.1039
12.8533
11.6214
10.9467
11.6018
11.0288
9.97965
9.71857
10.6198
15.7297
12.2373
14.0232
12.3366
15.5763
12.52
11.4146
11.4928
10.2656
9.75554
10.4002
15.4502
14.1254
14.9166
11.0482
11.0549
17.9232
12.5058
16.6862
10.891
11.2435
13.942
11.9472
10.865
10.53
10.4949
11.9573
14.6244
12.0893
11.8016
11.1386
10.7544
12.4009
13.2059
14.081
15.8536
15.1929
14.5972
14.8931
13.4829
13.2511
24.0503
30.2332
26.5607
37.4548
17.1925
10.9228
10.1042
10.0033
15.0574
14.0512
23.0103
29.2752
28.386
29.2596
28.9652
14.0713
15.3656
10.1159
9.72458
9.89538
15.1317
13.9957
22.4786
30.8731
30.8007
29.4702
30.059
13.818
11.8846
9.98405
9.58598
9.87658
15.3582
13.7393
22.6546
30.1429
25.5312
27.0044
28.9249
13.7571
12.1594
10.1126
9.65018
10.1539
14.7851
13.9162
23.4505
28.174
26.6001
34.1198
26.519
34.0721
20.9552
10.2045
15.6785
14.3452
24.589
27.8116
19.1251
18.9672
35.7327
16.9957
32.8827
35.9177
24.7173
20.6724
30.9271
30.9671
36.0132
33.7365
13.0775
15.8748
14.134
176.356
27.4786
12.2466
10.3021
9.81073
9.84616
13.6122
11.2815
21.6141
95.0105
80.6123
26.4759
12.1367
9.80458
9.55951
9.84865
14.003
11.2146
21.5752
77.9133
162.424
160.387
78.7961
26.4365
11.9412
9.79034
9.55761
9.82492
13.9185
11.2207
21.6055
81.1634
183.677
583.243
82.3355
26.7024
11.9741
9.78718
9.57752
9.93025
14.0897
11.213
22.3853
110.645
119.19
27.6791
12.1813
14.3636
13.3211
46.8315
187.242
30.2532
46.8249
145.201
74.7228
70.8747
70.437
36.9551
16.8815
51.1465
62.8058
10.3869
10.1514
9.88615
9.74316
12.3234
12.1583
42.7117
59.7302
10.3748
9.5864
9.5918
9.67775
12.1292
12.0926
42.6077
57.9643
10.301
9.5768
9.55747
9.67902
12.1454
12.0297
42.8033
59.7815
10.2865
9.59644
9.59073
9.7484
12.1525
11.798
46.3918
61.2527
10.4011
13.494
13.2942
40.7157
28.9643
56.7838
37.8605
33.7894
9.99068
12.0792
12.8621
34.5838
51.1028
12.3709
9.97743
9.64958
9.74538
11.763
11.425
35.4454
56.1825
12.2251
9.88359
9.56119
9.74099
11.4715
11.1371
33.373
52.3299
12.1626
9.88551
9.55718
9.78587
11.552
11.3687
34.5424
55.1098
12.2329
9.88701
9.56424
9.86214
10.8995
12.3594
32.5396
56.553
12.1972
11.3627
12.798
28.4675
15.4649
26.8149
72.8545
124.025
39.7573
40.8201
16.6569
16.799
10.1505
10.0177
13.1061
13.6242
28.0158
31.3299
58.5686
59.8299
64.5189
41.3321
18.4817
10.0617
9.8454
13.3327
15.1299
32.0773
56.296
75.2006
76.2262
56.7454
32.357
18.1952
10.0278
9.86718
12.7326
13.9284
23.3685
50.2489
68.4857
57.2778
61.2028
31.6752
18.2369
10.0245
9.8314
13.0731
15.0509
26.1067
55.9011
77.5372
65.6598
58.4336
34.6001
18.2222
10.0201
9.91845
13.3246
13.0793
26.1067
65.1435
60.0496
59.3621
79.5875
34.6075
18.4487
10.0666
10.0636
12.8639
13.272
28.2176
22.7813
29.6831
27.0423
14.0175
20.5354
25.372
29.2001
27.9452
20.0202
39.8087
11.9798
11.1038
11.1743
11.0344
16.0185
11.1883
10.0742
9.65575
10.8615
15.695
12.661
11.0865
10.7971
10.8467
11.0349
12.5913
10.7441
9.97316
9.61926
10.664
13.4935
11.7576
10.8949
10.741
10.7697
10.8112
11.718
10.6707
9.96345
9.60926
10.5774
13.149
11.5177
10.8642
10.7186
10.7659
10.784
11.8609
10.66
9.94756
9.62054
10.5816
13.398
11.6446
10.8853
10.7376
10.7771
10.8923
12.5712
10.7296
9.97017
9.65593
10.8053
14.9822
11.9834
11.0499
10.8183
10.8812
11.203
12.945
11.0947
10.0154
9.87785
11.0066
17.3895
12.2202
11.7014
11.1912
11.3143
12.2483
14.3001
12.3217
10.5574
10.5653
9.61477
9.58835
9.60563
9.57676
9.80509
9.66095
9.59421
9.68321
9.75357
9.59418
9.59361
9.56603
9.57944
9.58502
9.7938
9.61685
9.59894
9.64029
9.70746
9.57729
9.58145
9.56108
9.57018
9.60092
9.80029
9.61479
9.59227
9.6449
9.7076
9.57436
9.58006
9.56016
9.56837
9.59735
9.79895
9.60994
9.6023
9.65099
9.70259
9.57935
9.58161
9.56172
9.57482
9.58355
9.79187
9.61815
9.58586
9.67661
9.74401
9.58326
9.59784
9.57275
9.58956
9.57188
9.80431
9.64501
9.62044
9.79213
10.047
9.58299
9.5816
9.57006
9.5668
9.65942
9.58207
9.57835
117.221
107.063
55.0971
29.3665
30.2547
66.8286
140.396
34.5701
26.4757
34.4811
151.354
160.431
29.0595
24.1338
35.8884
111.583
160.419
88.2713
41.6245
29.5292
29.7468
101.795
54.8255
68.0984
35.835
34.7019
30.1088
33.711
65.7084
119.539
54.3042
89.8145
38.7554
30.372
35.1808
138.17
159.446
82.8647
83.676
35.853
27.9234
36.145
155.969
74.8611
81.5732
75.752
30.8928
29.7364
30.0396
62.053
36.0447
68.842
38.1026
35.7572
30.9342
35.7723
55.3645
92.7106
63.5126
94.3231
36.3954
30.5474
36.1087
84.2455
82.8896
93.4895
118.526
37.2133
29.5167
37.844
80.8533
74.8248
109.139
70.5714
30.2134
30.4147
30.3768
68.18
37.9436
66.5029
37.4754
30.7268
31.0179
40.2123
59.4447
100.22
79.2916
526.919
31.9932
34.8711
27.3025
103.667
128.414
35.9973
26.6498
42.2514
117.994
79.5448
89.6349
30.5041
31.0849
31.3497
66.3997
35.9222
88.7718
38.0852
35.4019
31.6902
26.177
77.2287
123.348
23.884
20.2081
25.4266
37.6957
20.2383
26.3107
91.6466
335.988
39.1205
32.7768
38.8588
87.312
39.1369
183.679
37.0606
24.2989
29.2084
28.113
142.376
124.04
24.4182
21.2681
25.3769
29.4736
19.3155
24.1823
530.024
163.888
34.8884
236.203
134.52
37.4916
32.2218
35.5145
23.5704
77.4202
61.7984
46.2706
35.8073
28.254
39.6245
112.877
59.0618
69.3123
27.5314
38.9543
36.8251
65.1667
72.2068
29.9196
39.3275
31.1659
127.535
65.5934
38.2901
45.325
71.2665
75.6397
42.5957
498.919
234.246
57.6921
68.8626
50.1908
59.1617
21.5403
79.6665
40.5567
92.3696
252.149
97.1045
46.9547
85.7356
57.3904
63.7766
67.7319
29.7885
27.0561
26.6732
57.4423
14.6484
53.7075
15.5728
80.9692
21.5955
61.9407
39.283
38.1743
77.6243
161.395
161.656
158.943
89.2811
160.792
82.0148
56.8236
79.2647
57.303
68.4433
65.1058
25.5867
26.4089
25.5168
53.1496
15.5016
50.7958
14.6568
61.6924
21.6301
65.3628
38.0282
38.4537
161.695
82.3434
169.399
158.549
171.134
582.828
80.9674
265.895
84.1211
57.0781
79.8032
57.5476
65.7617
70.4576
25.3775
26.3898
25.3189
50.8011
14.8251
52.4746
15.663
68.6976
21.6155
99.4243
39.1262
39.5648
174.927
110.999
89.5461
120.046
56.8923
110.821
57.7757
68.7563
59.7925
25.1145
27.3759
25.4779
52.5086
15.1173
55.6861
16.5426
96.823
48.8104
177.062
39.5252
38.773
151.235
133.289
59.6597
61.0066
62.5116
26.4601
44.6446
27.6442
56.4197
16.1482
196.046
29.1978
132.387
35.7721
27.0638
164.991
423.924
39.2043
69.044
27.5203
66.0782
118.624
67.878
69.7839
56.982
61.8104
50.7901
62.0829
58.0635
62.7462
69.383
64.0872
70.1444
86.0746
69.7883
38.6899
31.9513
204.316
64.8866
31.9889
71.6975
26.8756
36.3489
255.643
310.54
29.7305
34.0439
55.071
67.9848
15.9086
42.2239
76.7771
67.999
63.8772
52.3669
18.2342
12.6907
18.7975
12.6031
16.7298
12.4428
18.6293
43.2441
45.2243
40.4272
75.5627
66.5771
76.395
67.3631
14.7909
60.0065
13.51
54.8557
14.7048
58.8263
14.3223
19.6498
12.2635
19.6468
11.9119
18.9843
12.0054
19.4819
42.6868
40.0394
42.0183
65.7978
61.4589
67.9035
64.6628
13.9603
58.0651
13.4944
59.7775
14.5188
59.3279
14.0841
19.7755
12.179
19.6654
11.8449
19.5006
11.9183
19.1203
42.7261
41.4842
39.714
61.5057
66.2833
64.2519
65.3598
13.5179
59.8183
13.5425
59.0899
14.0864
59.2995
14.0455
19.6697
12.1516
18.59
11.8276
19.4128
11.9624
18.0959
45.4263
39.6264
41.8982
65.7488
72.4911
67.2699
108.332
13.7051
61.1601
13.5866
59.6946
14.0759
75.5769
13.1576
17.8507
11.7472
16.0249
11.6945
17.3765
11.1952
13.8782
45.3635
41.8548
27.5508
74.4761
103.299
13.3627
67.0326
13.0189
14.5071
30.242
27.8072
11.2174
12.733
15.2738
14.5126
27.9953
25.6195
44.7456
48.4673
95.1668
107.053
90.2889
83.1362
30.6485
570.744
68.197
38.0326
116.294
281.929
27.7443
88.9965
25.6994
50.6857
276.87
237.01
68.3595
87.8713
33.2068
27.4802
72.5136
66.4092
61.1228
68.8629
50.2007
57.183
57.2153
77.5465
58.2784
29.4257
35.8973
21.9849
67.3942
22.1379
52.0081
64.5242
61.2936
55.03
91.3876
68.4944
50.1288
91.4019
89.9953
55.988
46.7255
89.8799
66.2616
74.4117
76.6186
64.2484
38.9852
57.9976
32.7659
33.0987
21.6667
52.3452
22.8878
52.8395
51.1346
89.4607
52.3354
104.927
89.7163
90.9488
105.68
62.088
91.558
78.6758
59.9966
75.1952
80.754
68.1785
60.018
31.8057
61.3393
33.4689
34.1056
22.7523
52.9895
26.2314
49.9444
52.7363
105.344
46.7352
85.8736
105.388
62.204
93.9586
64.5381
59.9745
75.7946
68.3185
73.1936
67.8857
72.1781
61.6363
66.8108
60.9586
29.8136
32.962
19.9405
49.9753
20.4193
57.6738
49.5286
84.5212
61.8541
56.266
89.4686
75.5888
59.1603
48.8105
80.9074
72.3272
54.3005
42.9824
76.0493
98.8542
59.5877
32.1151
62.1038
32.8934
30.4376
19.8779
59.437
24.5139
67.4944
67.7528
58.779
65.8795
62.0159
62.7064
50.1272
63.6555
60.078
56.2086
47.0869
61.6473
76.2268
94.8849
67.3705
38.5195
65.4789
42.7431
26.8933
72.7957
35.8935
26.8643
63.2852
67.5342
27.7554
76.118
65.1883
64.9706
60.2106
75.144
53.5918
72.9631
57.9896
62.2918
86.2174
162.187
19.6551
32.0775
32.3986
33.0164
166.729
139.699
22.3654
30.8727
25.1261
31.0232
21.9543
32.8055
51.9134
18.5994
47.7191
32.1643
38.9053
63.8401
46.6082
34.3004
42.1159
33.2469
38.4111
60.5549
61.5349
34.9214
38.5793
32.4209
42.3563
51.4666
61.5859
67.8411
31.996
38.1988
32.0661
37.8363
47.1238
75.6601
71.3598
32.636
37.0917
32.2556
36.9458
60.756
70.8144
50.8295
31.6719
39.4537
31.8568
38.2049
63.9774
50.4009
65.8256
31.9203
37.6437
32.0469
37.161
72.136
68.6755
52.0685
33.0839
38.728
32.6179
38.7534
55.7617
58.2314
56.8964
31.3382
37.6313
31.9128
37.7712
65.9148
53.363
64.0164
31.8972
36.9182
31.9128
37.131
51.8702
75.2468
53.7219
32.5007
38.6824
33.0246
38.3413
56.8447
58.0406
59.3085
31.8255
37.6995
31.7747
37.8792
65.6003
57.7371
52.1423
32.1681
36.8559
31.5156
36.8757
62.0507
60.028
46.4931
32.1487
36.3408
32.4809
36.2372
56.4726
58.2891
48.1221
31.2712
37.7715
31.5725
38.4641
53.2107
26.3667
75.9955
29.0768
36.7459
26.9772
40.4703
46.9199
73.9176
74.609
32.806
36.8554
34.2855
39.9353
60.5204
67.1133
39.2315
31.8332
40.7059
33.8521
37.3512
23.0248
34.4173
18.4701
57.8323
33.7883
22.7481
34.0439
18.4744
58.4873
18.4574
50.7041
35.039
22.8746
35.4536
18.4164
51.0523
18.4264
53.1695
34.9309
23.2694
36.8722
18.1971
53.3863
18.5045
63.9119
32.2536
23.1508
35.0016
19.9345
61.731
28.1906
114.628
35.773
25.1105
37.4376
25.3174
120.851
26.5517
105.184
32.5421
11.5042
24.969
11.6787
15.7917
111.715
185.485
79.0643
111.272
76.9907
25.1177
11.2421
25.6252
11.367
15.6571
11.277
15.3213
123.095
77.1886
106.192
163.477
186.433
166.206
139.901
58.3073
79.1599
57.5534
25.5447
11.2522
25.424
11.2645
15.2944
11.2863
15.3866
116.12
78.7561
108.265
164.377
162.059
167.337
119.658
160.937
123.992
56.5068
81.2099
57.1991
25.1134
11.3173
24.7326
11.3359
15.5383
11.4691
16.0236
109.197
94.2529
196.635
155.546
351.116
56.6215
86.225
78.5315
24.2858
11.9813
16.9822
11.4723
16.2542
11.2552
14.7339
327.669
143.961
73.041
235.015
82.0403
17.0174
30.4019
24.7736
12.37
12.8704
28.4381
26.1175
122.601
43.0568
39.2716
24.2986
63.6427
110.768
30.4931
281.867
88.1185
69.2655
96.305
140.544
108.85
95.8525
42.3479
68.0394
67.3251
45.3903
58.944
54.8097
17.9087
21.418
70.1387
86.5269
19.0248
18.1215
85.2749
42.8448
53.472
53.7168
17.2834
19.1796
64.6544
85.7738
17.4304
16.9195
84.2819
42.6962
53.4247
53.734
17.1685
18.4138
63.148
85.5704
16.9552
16.7904
83.6466
43.9478
53.4769
53.8438
17.9843
19.3419
67.338
86.1609
17.9547
17.1298
86.029
50.3455
54.3442
57.4442
19.5607
20.7725
74.6012
86.4269
19.3012
18.336
81.7217
161.88
34.3393
40.9296
160.479
35.9856
74.0398
30.0357
19.7487
64.2003
143.164
64.3649
28.7161
122.022
61.3635
95.8711
131.886
55.4019
196.197
165.368
90.5026
102.448
46.3455
123.349
58.7977
45.676
106.825
74.9508
27.7738
35.2292
13.2318
14.7733
34.217
44.1586
12.0875
14.948
82.1436
52.8161
16.9835
30.1315
33.7879
14.2389
12.9661
14.4847
12.5638
31.5701
13.061
40.1309
56.1883
133.931
33.3892
47.5601
164.458
52.9043
47.3526
290.401
118.439
109.87
15.4077
54.6137
14.8865
29.0011
29.5225
25.3816
27.2444
14.5936
11.366
14.622
13.0982
32.9362
11.9651
25.317
71.3959
193.295
34.5936
48.4753
192.898
81.3745
39.0916
247.6
170.938
14.8584
52.3845
16.0502
24.1389
27.2784
22.8854
26.3013
14.9801
11.3153
14.4512
11.4972
24.6023
11.883
26.8764
72.6035
322.317
35.8914
39.5971
189.858
72.956
37.424
280.493
420.064
15.9665
53.2858
15.8082
33.5309
26.0461
21.303
26.3376
15.0594
12.5039
13.8932
12.9868
26.8774
13.0367
32.247
62.0072
191.974
32.5912
39.6319
175.078
72.4748
46.573
171.42
226.973
15.0649
60.8533
13.7565
27.0705
26.9685
21.5659
25.8627
14.1987
12.4741
13.3195
12.4648
30.1192
12.4069
33.1698
50.7606
161.091
34.7216
46.6778
132.493
55.3827
46.5454
275.078
88.8185
108.215
13.2431
28.1534
26.2472
122
130.615
96.4779
614.13
129.357
296.109
115.939
22.2795
73.1791
28.9613
26.3905
29.1291
36.6536
52.3743
355.744
68.1171
95.7877
74.5857
74.383
97.7804
73.6809
72.4813
80.7709
55.6438
128.981
35.0906
50.209
29.1749
35.5569
24.6031
43.6399
88.1433
33.3252
49.774
32.315
33.5753
31.7014
43.7836
31.9593
30.2833
15.642
15.6351
38.5999
21.5232
29.8925
30.6776
61.05
15.7668
44.9245
15.3672
39.9469
30.8411
57.493
22.1025
33.6396
22.0526
31.4037
37.8984
54.4535
23.1816
48.6272
14.8145
37.9173
14.6295
37.1355
49.4428
58.3122
75.941
56.3189
46.7446
63.8253
63.1032
29.7359
54.8968
65.4694
33.0456
66.5004
24.2005
33.2326
20.1248
61.3329
19.9632
31.3694
34.0185
31.4204
31.7128
48.4971
25.0208
49.7371
14.6346
36.7284
14.6082
36.9964
48.4198
46.8473
69.8937
61.3313
45.5561
47.9101
61.3407
51.415
52.2481
56.0637
68.8155
54.9952
51.2726
68.628
31.4338
59.9182
19.8028
31.2613
31.5244
31.3867
33.9404
51.3606
27.9701
29.6413
14.7858
37.4594
15.2927
40.4804
19.8397
56.9345
70.837
23.4489
52.8358
27.342
23.876
19.5631
59.5151
66.5545
23.4606
47.4811
26.5349
25.026
21.9007
75.6291
28.1598
31.1113
37.5474
33.5189
21.7913
29.9361
28.2417
38.0723
15.3649
44.9216
12.0631
19.9469
28.9963
25.7058
34.1592
38.0987
21.0164
16.0283
15.8269
33.3713
26.3839
34.8668
18.1646
46.4463
11.2026
17.0404
48.8464
22.4814
33.782
36.2714
43.2991
11.5246
16.5749
35.0716
21.6967
37.5407
23.9601
11.7872
14.7505
28.0769
34.9781
35.5572
10.8307
14.1349
11.5245
14.7725
28.2652
35.6275
33.6606
10.5126
14.2327
10.9164
14.6909
63.9803
51.5032
80.2841
58.3464
119.457
59.1058
247.703
67.0304
149.184
50.3058
56.0848
70.0331
99.2178
57.2682
50.9122
109.967
56.0871
65.4651
187.366
117.223
65.257
54.8594
117.106
53.2271
318.525
47.915
59.1787
60.9552
61.3133
54.2036
61.2838
53.5551
62.4664
200.049
160.818
62.9508
50.6718
56.4021
67.444
162.759
68.894
54.7113
49.7544
82.5499
59.1099
50.7595
163.025
46.0543
70.7186
88.0084
48.7134
72.5354
147.446
49.1345
60.7922
505.134
106.982
61.2274
48.1555
156.816
47.1839
62.5635
85.917
99.5864
77.9272
48.6492
142.997
65.2519
61.5497
61.6123
89.3648
55.1083
65.0545
55.1941
42.5159
29.2548
82.5322
47.5766
67.1994
25.3214
52.833
66.167
57.9231
92.5392
57.2571
50.0623
50.8958
66.0398
56.4103
70.9651
111.937
92.5865
51.8563
70.4099
71.109
34.5867
19.0165
60.2825
64.3012
21.8698
26.7067
68.8307
47.3157
70.5023
91.6299
71.3552
69.8378
43.233
74.2747
51.8388
66.7672
159.962
88.4251
52.919
68.4676
121.774
54.4676
70.7074
161.833
104.895
55.2946
70.5836
139.862
50.1196
67.1469
86.1656
77.1297
66.6167
49.3037
172.455
53.6412
72.2294
104.921
77.674
71.3863
52.7328
122.087
47.4382
64.5317
106.383
100.308
48.3859
65.3447
70.893
49.2901
63.0278
101.337
71.5187
49.445
62.9662
70.8205
47.3023
67.0964
97.0842
68.314
65.9841
47.3419
68.5523
48.9306
63.189
73.4873
73.0016
62.9164
48.8175
68.7511
25.9722
19.2302
65.7348
54.9545
26.0804
19.0904
64.8076
42.3579
72.7277
74.7701
89.685
42.3388
72.0396
71.6298
27.1407
22.5918
54.652
69.8803
19.5787
35.5348
64.752
43.0311
71.7264
89.943
81.9182
71.7326
47.1405
71.6227
47.8381
70.8358
76.3101
82.4446
48.328
69.4273
78.237
50.2855
72.0106
76.9761
85.8214
50.7569
71.6367
79.5027
47.9625
69.2599
82.7073
152.746
68.8037
49.2555
80.8334
50.3994
70.4848
87.8577
159.968
71.3636
51.3394
85.4102
47.3271
66.8687
67.7745
83.2499
47.2064
66.7393
66.3925
49.4156
63.397
72.6067
74.371
49.0782
63.4437
68.7363
47.4183
67.174
84.8334
76.7892
66.7779
47.951
64.7825
49.4311
63.841
72.7654
74.591
63.7139
49.7921
65.404
49.4032
51.551
73.0437
68.4424
67.0878
56.0944
110.51
52.9647
68.7542
90.0118
158.062
56.8373
67.7642
109.251
48.4141
62.2407
65.6337
147.291
60.6701
48.6596
112.253
52.1054
69.526
164.301
199.887
63.4418
53.9282
111.816
52.2183
65.7056
158.487
161.375
51.7494
66.1377
166.144
53.2094
66.6943
161.756
160.168
54.0782
66.8368
170.01
47.027
63.2957
165.198
63.0035
55.9866
177.955
47.2754
66.4027
160.58
67.4777
53.9388
185.857
51.0695
59.1093
81.9944
158.546
48.8842
58.87
118.737
51.7632
63.3249
78.529
81.2087
51.2689
64.7815
110.418
48.6162
60.864
161.12
182.722
61.6487
51.6692
125.588
47.9845
76.4914
77.6468
157.865
77.5813
49.7349
114.956
36.1311
67.649
67.3374
56.477
62.3191
38.155
47.2989
54.5659
56.1625
176.079
102.41
50.238
62.9914
186.493
59.4621
64.8163
117.063
57.9684
54.9594
255.997
46.7787
69.3377
114.82
66.3344
64.0698
242.032
51.3755
49.8048
56.7797
62.9874
500.104
44.3578
62.4025
55.1304
58.9787
45.0088
59.898
54.8973
61.5904
42.0339
51.8204
54.9879
45.8574
43.3383
53.2326
58.2394
50.1539
49.5004
49.5054
244.096
51.1455
73.3662
53.3769
69.3958
171.244
117.476
47.9376
72.9082
44.8398
61.8169
66.9572
39.2863
55.7075
75.1635
119.779
71.7109
43.0815
54.1884
61.0226
54.3687
108.16
62.8915
61.9288
64.7457
53.4746
60.4152
109.208
76.2006
58.3968
54.2299
78.9677
55.2746
68.9401
170.626
64.7509
69.0417
43.4757
51.6049
60.26
53.4593
55.0934
70.0542
171.224
70.9356
69.2531
43.4151
58.8818
54.324
66.4977
47.0822
54.051
46.8327
61.8574
50.8947
52.0793
51.0626
53.2351
47.4895
66.1115
63.3807
48.0664
51.5077
52.9533
53.7903
51.067
40.1269
58.9434
38.4244
57.8434
39.3934
67.1557
38.6844
54.4375
40.5798
59.8008
58.683
41.0022
40.8289
66.2346
58.1717
50.3033
55.0158
75.92
52.1287
50.6573
52.0911
53.8318
66.9864
67.7193
65.936
67.9312
52.8378
70.0173
59.692
61.8086
111.201
65.6861
74.5957
76.8227
55.5856
75.3397
111.191
46.955
79.4376
79.4721
57.2275
53.2964
80.462
47.6845
60.1191
103.911
59.9557
62.2617
77.4237
45.1188
70.1412
73.3873
58.6502
80.5943
73.2003
61.5714
77.9263
126.181
103.466
57.0476
118.87
90.1883
56.2419
54.9805
121.994
109.828
40.4147
34.0001
143.928
105.764
35.8127
40.2479
33.9055
102.255
138.606
138.404
254.725
100.906
148.649
169.597
204.547
198.638
120.153
248.463
111.295
173.041
72.0476
59.0676
60.3242
59.7034
59.7804
103.198
62.8276
72.1164
58.0551
47.9523
51.3054
54.0685
58.9586
75.4218
67.2918
65.5393
59.8058
67.9082
62.6549
88.2624
57.3586
64.0239
55.944
112.124
86.6229
66.8767
54.6159
54.6278
85.5388
86.4837
37.2642
552.339
38.5044
99.8537
40.2089
334.312
112.305
131.442
85.6875
41.0155
38.134
330.916
40.4811
85.7358
333.235
111.376
110.66
182.003
163.87
110.519
82.269
104.933
113.758
163.437
107.769
116.31
175.507
162.808
164.842
495.87
162.518
166.219
159.465
81.5275
123.132
160.868
121.135
135.464
81.8813
109.779
118.798
79.706
56.9951
58.304
57.2317
71.0966
54.6954
54.3274
64.9848
55.382
85.4854
54.2028
62.4337
54.6335
85.274
85.5078
63.3943
55.2331
54.8796
91.057
85.4397
40.8449
330.485
38.0009
85.7598
40.9583
331.984
110.698
110.516
85.3324
39.923
37.9745
337.395
40.7534
86.9147
332.49
110.731
114.326
115.238
161.938
109.72
78.0441
112.132
108.165
162.289
120.607
109.742
165.639
159.57
170.167
162.362
171.428
159.876
180.011
107.897
85.0179
111.604
160.784
152.581
131.509
81.9149
136.588
115.069
79.6377
57.2101
57.7533
54.9466
58.8297
55.2921
54.15
58.3181
55.9735
107.842
55.8391
79.4155
54.2884
93.5977
114.672
81.3381
56.1392
55.2232
136.72
99.7507
39.2419
338.657
40.7076
87.7364
36.8171
127.39
115.617
102.585
33.669
40.831
35.4342
116.363
132.459
163.248
120.505
128.153
96.3731
246.895
116.126
542.986
145.434
142.484
96.0259
193.206
593.454
99.3421
249.322
88.4807
75.5075
70.8371
56.3836
58.8727
60.2048
54.214
63.8734
55.8636
68.8042
60.4278
65.1603
68.2221
64.2292
145.519
55.5381
127.41
59.1171
138.846
159.577
116.281
49.8347
62.3097
159.782
128.233
32.4529
41.4974
111.41
31.6473
169.207
172.331
132.789
25.1891
42.8256
31.9439
128.544
211.825
292.6
158.731
501.334
73.9681
46.4302
60.4962
72.3171
60.0681
329.203
88.1222
92.112
58.1708
76.9096
66.8431
79.3406
62.6705
66.7821
99.5069
73.9722
98.3557
74.6594
122.048
49.933
146.324
66.3969
161.951
135.514
148.807
56.4507
73.6712
100.283
131.08
25.024
34.301
127.173
29.5451
161.382
155.386
295.137
134.916
40.9364
37.3685
147.462
38.4969
93.511
158.966
142.115
180.133
116.41
285.857
76.4999
44.9823
57.7305
55.3992
65.2974
39.6635
54.8414
54.3295
48.5418
105.921
65.7582
49.441
47.6535
75.6508
54.6581
51.8915
54.013
64.6659
132.457
67.6781
98.3415
65.6985
145.604
113.025
79.3806
74.4175
144.847
98.5563
67.7726
46.1381
70.9419
162.836
109.897
53.2131
73.5162
80.862
150.504
204.364
183.449
86.3971
191.738
161.615
104.052
183.13
109.473
50.5241
66.6884
71.4173
88.2771
75.3125
53.3696
87.7799
96.727
88.2009
83.5077
93.9108
82.8307
93.1959
71.8409
85.3456
70.2772
48.4369
64.8118
63.9922
167.414
59.9696
69.3709
136.852
183.657
179.615
163.002
161.201
81.7485
166.856
145.47
164.134
146.805
97.5439
182.065
168.854
180.175
165.673
93.2914
77.2815
64.0948
164.381
43.9241
157.061
65.9556
72.5522
54.5656
56.3298
53.2552
84.8377
55.4692
42.0032
49.4199
83.7057
46.5395
87.2092
62.0334
45.5102
146.814
142.389
158.135
95.7056
95.4368
71.7218
93.9202
97.4071
69.2946
94.0952
18.5472
20.0491
85.7295
73.1029
17.0394
16.8374
85.3134
47.514
17.3412
64.7104
17.0009
17.3243
44.0292
53.3885
54.3608
55.9668
160.533
41.8349
54.5408
197.016
53.5133
41.8251
335.951
54.5119
196.807
92.3352
92.9041
97.7698
92.6177
97.2542
98.3716
93.7357
79.1586
95.501
97.6146
82.6567
96.5522
17.8192
70.0347
19.3517
86.0139
18.4938
86.7634
16.7807
17.4315
84.9392
17.7842
58.5141
17.9287
83.6953
17.7068
17.6295
86.1158
60.2322
19.7213
86.166
17.0859
18.2857
42.6283
53.7772
53.609
53.5535
336.284
39.7512
53.6757
337.308
54.0186
39.7559
604.254
53.5707
337.111
86.1801
94.3532
97.1735
83.9132
96.425
97.2567
94.3232
88.6539
97.4
96.7257
88.7654
97.6307
17.2998
64.3287
18.4183
85.8283
17.1079
85.1477
16.6441
17.5065
85.3432
19.9985
65.7616
17.3584
84.8291
18.2073
17.6003
85.7077
66.144
19.2735
85.9114
16.838
18.061
42.5807
53.8155
53.5058
53.6496
41.1144
53.8322
337.08
53.7532
40.2712
337.098
53.5438
338.246
79.3671
94.2832
96.8185
79.508
96.6281
97.2022
94.4941
88.3822
97.3309
96.6596
88.6637
97.6784
17.4055
63.2677
18.9653
86.1625
17.2025
84.9688
16.7986
17.488
85.4041
19.4446
66.2243
17.0357
84.269
17.9609
17.6512
85.7439
66.214
19.5375
85.5618
17.0478
18.0577
44.0335
54.5379
53.5469
53.4938
336.279
40.0019
54.0206
251.06
55.1011
39.4031
196.82
53.4895
208.056
88.7779
95.646
97.9198
89.2161
94.2839
97.1605
96.2207
95.0561
96.5548
94.7548
95.2264
95.0325
18.2865
68.0914
20.5251
86.2943
18.5201
86.0712
17.8227
18.0247
86.1697
19.9836
67.1021
17.3602
84.8164
18.6838
17.756
84.2532
64.431
17.7068
83.2957
17.6902
17.4652
52.4333
48.4656
57.8571
54.374
192.615
45.2175
55.2229
158.813
39.9985
40.7095
131.201
52.0635
155.465
93.8038
94.7453
97.3055
96.6913
18.9381
86.035
17.5443
17.8981
18.219
162.617
41.326
153.079
36.2055
159.053
48.275
145.93
192.833
160.665
161.82
35.0633
127.272
29.3593
39.2366
102.77
152.309
161.823
36.1606
33.0802
85.079
42.8559
143.153
97.1172
102.663
159.962
159.837
86.0694
151.193
138.818
50.6214
75.6231
59.2164
107.171
80.3193
94.4369
92.8888
68.6961
33.6773
67.2956
44.3132
116.05
43.1498
57.2313
88.6091
90.7364
418.372
142.163
65.242
84.0917
102.342
238.611
65.2661
67.7514
60.6638
247.689
119.755
220.322
128.441
204.069
182.445
76.2809
183.013
72.2772
124.837
47.1838
82.9305
157.63
60.6869
65.042
181.657
51.4998
81.9294
105.569
64.1663
100.464
149.499
85.8475
54.8731
58.3646
77.0355
149.316
110.386
114.996
56.0653
129.158
48.2503
47.6119
137.721
143.603
110.772
117.647
89.2335
143.424
525.632
110.576
158.587
92.8349
100.343
72.7576
95.342
67.0634
102.601
58.4331
68.7165
104.887
78.7918
87.1717
61.0941
120.381
56.9853
71.3447
132.926
58.2511
258.435
122.518
222.688
57.1539
465.416
69.7495
64.3511
317.405
163.93
66.8165
59.4239
104.474
59.9724
60.7499
48.6989
62.3833
73.9852
67.3815
47.861
48.1363
55.8859
49.9302
45.6056
73.8769
154.415
59.0878
64.0702
46.6786
41.1305
63.9984
48.1835
174.865
50.1078
71.5955
65.6436
65.5826
90.7739
99.2307
77.9323
74.2491
55.3568
71.4202
83.0653
68.0213
64.0537
121.622
56.6293
80.9196
50.3695
57.6741
135.807
83.5112
51.4014
81.0762
150.162
68.7205
57.1206
32.9902
195.826
52.0948
164.561
47.2696
66.1818
80.0106
89.8801
60.9311
117.903
39.0324
61.9013
47.2659
180.634
47.6233
60.6475
61.5832
49.5724
218.759
65.6732
49.3267
175.651
53.2884
68.1839
450.938
50.4759
44.6578
74.0379
59.9788
63.1109
59.0264
50.2626
82.6727
67.7693
65.2175
46.6651
67.9736
87.1669
48.5789
89.1378
86.8237
81.9197
83.8073
84.6704
85.1139
85.5443
84.2398
49.3499
91.9408
82.6572
51.685
54.0459
84.9919
87.3308
79.2607
85.0842
56.9186
83.297
86.2905
99.4661
64.704
53.0846
93.3449
59.0628
122.602
144.031
104.396
71.3822
55.3653
58.0019
123.658
100.356
62.1353
58.709
91.1768
57.3843
101.331
58.402
53.3621
130.776
53.1877
92.3666
97.1665
71.6238
34.3862
252.767
39.5969
192.445
37.7988
71.9407
93.1539
94.848
67.136
53.4258
50.9885
68.2949
55.6161
69.4827
52.0106
49.9042
77.8041
54.6204
69.2003
48.5371
86.9001
76.2412
103.85
92.0323
47.8431
79.2921
88.167
112.445
89.3581
93.7808
83.6235
105.052
68.338
85.0688
60.863
64.2945
112.341
64.249
68.1779
61.0905
61.088
63.8666
80.038
62.7106
85.6769
82.4433
87.3836
85.701
59.8827
67.8573
81.3941
83.2927
72.6916
82.756
167.057
69.7285
54.027
134.094
68.2658
263.143
297.626
131.824
67.8972
61.8579
65.1561
148.379
160.453
49.1294
68.33
134.858
49.476
162.955
66.9908
48.6904
167.671
48.9423
94.773
96.2164
72.3502
34.7639
192.583
37.8569
190.736
37.4882
70.3433
94.3788
89.4208
71.247
49.5813
52.8754
78.2444
55.1455
70.4405
54.9756
52.2659
66.9651
54.448
79.5934
48.2092
89.9342
89.689
111.887
92.2484
48.3751
68.2314
89.3168
107.677
77.9804
91.6669
63.8979
113.561
64.2163
61.0446
61.1535
61.1274
109.393
86.6338
64.4615
60.961
80.3769
61.2274
67.0167
59.0099
72.882
71.6042
76.2875
76.7548
59.028
84.5819
74.793
80.7401
82.3872
77.9293
143.611
65.7971
64.7528
176.334
60.4075
279.8
228.892
143.22
66.5671
73.068
60.948
156.897
164.841
49.4742
62.1769
169.967
48.284
164.325
65.3971
48.3722
128.753
48.9794
85.3831
92.7853
58.6753
31.5943
163.473
46.6285
172.223
50.266
56.7505
82.6486
77.1751
65.2545
54.8962
66.3122
66.8309
55.3022
62.9662
151.481
64.9437
48.2318
473.182
61.2889
50.4821
67.0229
71.0507
76.7963
76.1081
96.679
86.8061
286.115
63.4045
46.8519
64.6763
93.6248
48.0368
76.0933
93.5291
98.1953
78.6137
88.9925
83.1211
80.4743
95.9769
46.4303
78.0604
82.7146
47.1372
79.7466
83.663
84.3211
78.0478
82.5083
70.2589
83.7917
84.306
40.348
78.4291
69.6967
45.2307
83.3412
134.35
120.397
58.6221
153.913
56.8253
164.996
111.68
125.971
113.227
55.4793
77.6135
94.1692
108.38
51.7257
62.5082
124.003
54.3439
104.867
60.8391
54.6731
92.7311
56.212
64.812
75.4218
147.536
58.8885
237.308
117.47
129.987
42.6659
46.448
143.401
47.0274
66.0242
52.2712
114.477
39.0586
145.485
209.714
269.801
48.2112
63.9622
167.384
54.9527
46.4402
56.4073
46.9356
112.971
68.5314
54.0574
145.073
221.761
55.2225
58.2766
54.8128
328.282
50.4013
43.736
61.6239
45.4578
47.2833
51.3577
47.636
63.3556
49.4402
42.9421
51.9088
43.8745
45.5359
124.897
44.9515
59.8918
40.5049
49.0763
65.1187
279.899
45.0192
62.1396
55.7411
523.848
42.5533
102.842
75.9741
52.027
201.706
251.816
55.3203
76.6999
55.4366
91.9835
50.6485
89.6926
116.061
78.6977
77.893
58.003
56.5194
91.2407
150.157
54.8499
77.9895
99.4713
60.9897
63.9006
127.994
54.8375
58.014
228.778
128.116
124.04
43.2905
86.9765
60.4894
86.6899
73.5816
123.287
86.6064
53.8301
144.873
317.765
193.17
75.8121
98.223
96.0402
115.646
99.4257
199.316
95.334
116.533
105.87
54.2542
56.5001
164.011
65.7907
51.7263
115.498
55.5549
64.1228
195.41
140.008
54.6427
109.863
59.6147
57.8781
63.1727
66.4154
60.7884
53.2572
109.647
64.2646
70.2627
56.0241
103.679
61.9874
55.6714
339.813
298.531
97.6543
236.497
70.803
294.937
68.8686
198.453
72.051
136.862
49.4029
58.5072
180.139
52.0142
135.993
46.9363
63.4005
106.389
49.6257
87.7904
62.565
69.9224
62.7279
126.127
53.0009
50.1687
86.0211
56.9428
69.7802
55.3391
80.1569
53.1009
50.6364
119.33
127.229
114.096
72.1532
186.06
82.2964
107.936
86.1507
58.7353
55.7946
238.087
99.268
53.1433
86.6364
100.08
51.851
69.0765
175.42
52.9696
83.3288
58.1943
66.9009
61.6752
80.8439
60.7881
55.5918
87.2003
46.6906
38.101
59.7819
55.9532
96.289
95.2821
68.223
53.572
174.564
135.052
67.0836
81.6297
63.1474
54.005
144.727
61.7934
59.5402
65.9632
52.5555
66.8925
19.938
25.3798
63.8835
56.224
16.07
60.5218
78.8023
75.3095
52.8873
50.0401
247.14
69.2896
64.1413
51.01
52.6237
222.684
58.6234
53.0194
53.2203
48.438
71.4753
26.5002
20.2083
56.0713
63.6568
19.6491
49.0158
62.1552
19.5423