/*--------------------------------*- C++ -*----------------------------------*\
  =========                 |
  \\      /  F ield         | OpenFOAM: The Open Source CFD Toolbox
   \\    /   O peration     | Website:  https://openfoam.org
    \\  /    A nd           | Version:  10
     \\/     M anipulation  |
\*---------------------------------------------------------------------------*/
FoamFile
{
    format      ascii;
    class       volVectorField;
    location    "0.1";
    object      U;
}
// * * * * * * * * * * * * * * * * * * * * * * * * * * * * * * * * * * * * * //

dimensions      [0 1 -1 0 0 0 0];

internalField   nonuniform List<vector> 
115408
(
(0.0316717 0.00301437 0.020248)
(0.0507345 0.000228849 -0.0114032)
(0.0983101 -0.00314209 0.0409478)
(-0.0183733 -8.67889e-05 -0.0316865)
(0.0481724 -0.0181592 0.0728269)
(0.0795313 0.00797475 0.0681839)
(-0.00197702 -0.0127101 -0.128593)
(0.086321 0.00166501 0.0515276)
(-0.0159272 -0.029511 0.0141159)
(0.0403911 0.00219551 -0.00778721)
(0.0462943 -0.0140854 0.0311819)
(0.0529844 0.00770118 -0.00536134)
(0.0824116 0.00498644 0.0261642)
(-0.00262283 -0.0226186 0.115221)
(0.0778316 -0.0375806 -0.00348821)
(0.0598952 -0.0056367 0.0479356)
(0.0656204 -0.00714397 -0.0150968)
(0.0730948 0.02331 -0.0790895)
(0.0244168 -0.0259444 0.107195)
(0.0824179 -0.0254032 -0.0350327)
(0.0742095 0.00315594 0.0252836)
(0.0599428 0.00203225 -0.0243536)
(0.112367 0.0252662 0.0297101)
(0.0378612 -0.011128 0.0682763)
(0.0809953 -0.0104401 -0.0397961)
(0.0835592 0.00374575 0.0298118)
(0.0700924 0.00383604 -0.0321564)
(0.12168 0.0190707 0.0384517)
(0.0404655 0.00660201 0.0715893)
(0.103224 0.000955196 -0.00245291)
(0.0940728 0.0166375 0.0235775)
(0.0769192 0.00238026 -0.0216479)
(0.125506 0.0245366 0.0299877)
(0.120751 0.0171363 0.0598329)
(0.0943111 0.0204965 -0.00827137)
(0.0954758 0.0204809 -0.0983007)
(-0.0253253 0.054034 0.34634)
(0.102067 -0.14888 0.30395)
(0.0348871 -0.0794216 0.373871)
(-0.30433 0.107981 -0.0226019)
(0.261863 -0.0309489 0.052576)
(0.116851 0.0374028 -0.0663667)
(0.0381912 -0.116252 0.0891251)
(-0.104401 0.0460689 -0.10432)
(0.26163 -0.007207 0.395227)
(-0.174677 -0.0396303 -0.0358448)
(0.183296 0.0014475 -0.0083507)
(-0.0629533 0.133822 -0.0658476)
(0.142056 -0.0579027 -0.0246824)
(0.165408 -0.0774149 -0.0611147)
(-0.0243706 0.146947 0.0811093)
(0.10549 -0.094122 -0.0599937)
(0.0756041 -0.0126619 -0.029616)
(0.0568912 0.119192 -0.0534822)
(-0.00478118 -0.135595 0.0208316)
(0.0210607 0.0899042 -0.0587171)
(0.133824 -0.00172429 -0.00612768)
(0.233481 0.0799146 -0.0372508)
(-0.268568 0.00142739 0.00218248)
(0.204055 0.308926 0.275531)
(0.0258791 0.282779 0.283866)
(0.023243 0.362909 0.254629)
(-0.172277 0.0499857 0.0258688)
(0.061839 -0.109414 -0.0989298)
(0.0846646 0.0872879 -0.0263596)
(-0.119783 0.116845 -0.105144)
(0.0598794 0.383059 0.308176)
(0.0882054 -0.0589375 0.267883)
(0.0343897 0.103526 0.356643)
(0.0299258 0.0377943 0.328747)
(-0.0472141 0.48678 0.312406)
(-0.266553 -0.132284 -0.0210253)
(0.263517 0.0889584 0.0335679)
(-0.142782 -0.0404907 -0.0969554)
(0.229274 0.06933 0.319311)
(0.122944 -0.0117244 0.238106)
(0.0383593 0.0250904 0.340773)
(0.0559861 0.0265787 0.307581)
(0.0524711 0.0842868 0.402409)
(-0.153413 -0.123218 -0.127618)
(0.302093 -0.140548 0.297839)
(0.188988 -0.0526546 0.220506)
(-0.0254884 0.00934127 0.3564)
(0.0624963 -0.00144444 0.292809)
(0.071079 -0.170555 0.368593)
(0.116277 -0.0861851 0.032911)
(-0.163364 0.0559092 -0.0972111)
(0.351993 -0.0306541 0.317704)
(0.175384 -0.0734868 0.254115)
(-0.170426 -0.0466961 0.0392479)
(0.116256 -0.0969646 -0.0146888)
(0.122713 -0.0330953 0.0114572)
(0.122319 0.0230401 -0.0100084)
(0.0805221 0.0738269 0.46657)
(0.0851248 0.0105734 0.500398)
(-0.0870572 0.0655047 0.229703)
(-0.0328083 0.0330045 0.446717)
(0.0981808 -0.221319 0.413645)
(-0.39542 0.171052 -0.0870055)
(0.378263 -0.0478437 0.0367315)
(-0.239843 -0.0295879 0.132693)
(0.204088 0.0345694 0.302244)
(0.00193832 0.00426836 0.390906)
(0.0210073 0.079063 0.277527)
(0.116211 0.0777382 0.26731)
(-0.0143701 0.0675428 0.462669)
(0.0352845 0.0646385 0.354439)
(0.108168 0.0455738 0.395616)
(-0.0216042 -0.126711 0.0319544)
(-0.134518 0.153571 -0.102369)
(0.247743 -0.010287 0.00333608)
(-0.24884 -0.0057277 0.123898)
(0.199958 -0.0202572 0.312717)
(-0.0099972 0.0196437 0.353305)
(0.030565 -0.0209012 0.307983)
(0.0269486 0.0421932 0.336561)
(0.049441 0.045309 0.349448)
(0.0302406 -0.0223036 0.378169)
(0.114218 0.0447045 0.413203)
(-0.0731986 0.0149306 0.00311284)
(-0.0801853 0.0256464 -0.0953619)
(0.267521 0.0218572 0.0267627)
(-0.224614 -0.0334347 0.109375)
(0.216514 -0.0185754 0.338971)
(-0.0520571 -0.054708 0.331367)
(0.117959 -0.0753841 0.125796)
(0.082549 -0.0176626 0.29144)
(0.00987242 -0.0453457 0.176681)
(-0.0520043 -0.01186 0.497735)
(0.107414 -0.0137132 0.348166)
(-0.020596 0.162153 0.044449)
(-0.118957 -0.115312 -0.117072)
(0.261486 0.109642 0.0196131)
(-0.243901 -0.0201927 0.174006)
(0.205757 -0.043993 0.290681)
(0.0921932 -0.0506286 0.182901)
(0.138352 -0.0373117 0.373143)
(0.0669804 -0.014685 0.43075)
(0.0396425 -0.00794681 0.366533)
(-0.0701649 -0.000421846 0.109024)
(-0.0316212 -0.0380407 0.493987)
(-0.0566901 0.61259 0.337567)
(-0.33285 -0.134273 -0.096662)
(-0.14243 -0.0724831 0.133407)
(0.211292 -0.108579 0.276)
(0.0807002 -0.0198583 0.211296)
(0.199138 -0.0210528 0.458371)
(0.0870698 -0.00542384 0.401862)
(0.063267 -0.00854524 0.372721)
(-0.0104765 0.0337813 0.328564)
(0.027563 -0.235113 0.219704)
(0.112829 -0.0206798 0.262744)
(0.267104 -0.0226959 0.483899)
(0.0548664 0.00568823 0.436875)
(0.0609039 0.00391854 0.398684)
(-0.0359557 0.0287059 0.22108)
(0.029252 -0.0442507 0.377988)
(0.121329 -0.0436616 0.284058)
(0.214414 -0.0807431 0.242897)
(0.124052 -0.0430025 0.248083)
(-0.0521605 0.00786389 0.476729)
(0.198648 -0.243463 0.296508)
(0.149542 -0.130175 0.278958)
(0.111631 -0.0856485 0.278707)
(0.0901417 -0.0299646 0.427733)
(0.0193478 -0.0854129 0.409833)
(-0.0332146 0.0119905 0.411151)
(0.0331144 -0.108277 0.511022)
(0.143009 0.0689548 0.247506)
(-0.189021 -0.0232403 0.0154167)
(0.274622 0.122905 -0.00431464)
(0.136644 0.0301157 0.030566)
(-0.0584598 -0.0107947 0.505618)
(0.0729957 -0.00997132 0.166644)
(0.0356781 -0.026294 0.461734)
(0.0280515 -0.051637 0.376219)
(0.0169554 -0.0266323 0.345828)
(0.0663431 -0.0264872 0.389165)
(0.105005 -0.00996388 0.371877)
(-0.0903825 0.0346011 0.241943)
(-0.0254337 0.00534721 0.581017)
(-0.330837 0.0087894 -0.125473)
(0.380673 0.00135132 -0.00560386)
(0.149425 -0.0219501 0.0407209)
(-0.0350216 -0.0233547 0.499035)
(0.0770752 -0.0198901 0.15882)
(0.0494948 -0.00731513 0.436813)
(0.0335209 -0.0254844 0.392538)
(0.0329532 -0.0269202 0.371411)
(0.0767501 0.0207602 0.365016)
(0.0883802 2.95923e-05 0.389993)
(-0.0947579 0.017415 0.235256)
(-0.0302507 0.0173369 0.564267)
(-0.276405 0.015079 -0.0933986)
(0.353492 0.05534 0.0111885)
(0.15765 -0.0763355 0.0667357)
(-0.0444481 -0.0397306 0.491066)
(0.0783046 -0.0358434 0.156224)
(0.0517333 -0.00637002 0.427623)
(-0.0111875 0.0282125 0.369107)
(0.0570832 0.0835841 0.279576)
(0.0791 0.0152451 0.277214)
(0.100638 -0.00987597 0.413933)
(-0.08592 0.0230629 0.214734)
(-0.0232135 0.0644113 0.598389)
(-0.290449 0.0243201 -0.119957)
(0.372788 0.0200351 -0.00254111)
(0.107699 -0.0687085 0.0021812)
(-0.00582717 -0.0600626 0.513064)
(0.0949301 -0.0327717 0.133388)
(-0.00958089 -0.0370776 0.402782)
(-0.0723686 0.0497763 0.371345)
(0.0861556 0.00852626 0.321343)
(0.0387072 0.117656 0.250753)
(-0.00873316 0.0318426 0.390574)
(-0.00741448 0.197355 0.407589)
(0.0936504 0.0620546 0.158939)
(-0.239419 0.0418553 0.0320746)
(-0.0171152 -0.0794877 0.480644)
(0.0944636 -0.0225336 0.17192)
(0.0129248 -0.043817 0.452508)
(0.0853277 0.0320758 0.280904)
(0.0992889 -0.0234661 0.265909)
(0.0962773 7.44615e-05 0.254756)
(-0.0199131 0.0856962 0.156377)
(-0.0205305 0.0253019 0.40952)
(-0.0900955 -0.0726732 0.487037)
(0.0397346 -0.129992 0.356697)
(0.0504551 -0.0461768 0.359579)
(0.0926733 -0.03518 0.285524)
(-0.0540125 -0.0596786 0.50837)
(0.028161 -0.142509 0.422216)
(0.0301247 -0.267467 0.353436)
(0.0749068 -0.186074 0.339481)
(0.150308 -0.198132 0.369642)
(0.178549 -0.265468 0.20722)
(0.0738507 -0.0628072 0.324016)
(0.558837 0.0256852 0.159347)
(0.0816805 -0.025219 0.0961035)
(-0.0155632 0.0568163 0.0542134)
(-0.155943 0.0616336 0.0149294)
(0.300117 0.0534167 -0.0231325)
(0.177774 -0.0219959 -0.0986857)
(0.0370402 -0.018754 0.235715)
(-0.0862185 -0.0201222 0.151637)
(0.0128093 -0.0105377 0.187699)
(0.380344 0.000648068 -0.135399)
(0.427355 -0.0175427 0.20661)
(0.050684 0.00982516 0.103378)
(-0.0403707 -0.0235956 0.0831267)
(-0.259552 0.0216018 0.0128945)
(0.361639 -0.00098787 -0.0312859)
(0.210744 -0.00580408 -0.0609999)
(0.0055262 -0.0274839 0.247742)
(-0.0752261 -0.0218694 0.153361)
(0.013484 -0.0135925 0.188351)
(0.285444 -0.0131733 -0.0295115)
(0.5904 -0.0186512 -0.0390497)
(0.427283 0.00716352 0.0367785)
(0.395668 -0.00529646 0.224959)
(0.0527301 0.013139 0.10498)
(-0.0368829 0.00981577 0.0774992)
(-0.210423 0.0278197 0.0227256)
(0.341743 0.0245955 -0.0251048)
(0.202037 -0.0687342 -0.0693057)
(0.0124444 -0.0403302 0.246234)
(-0.0716523 -0.0310853 0.149414)
(0.0209866 -0.0178909 0.178261)
(0.332531 -0.0074757 -0.121143)
(0.607484 -0.021414 -0.050438)
(0.509558 0.00443065 0.0320134)
(0.401196 0.00773025 0.218118)
(0.0565249 0.0189888 0.101106)
(-0.0327052 0.0277859 0.0767473)
(-0.250697 0.00562828 0.0172414)
(0.369744 0.0782269 -0.0457023)
(0.173081 -0.0430629 -0.0563748)
(0.0543518 -0.0579726 0.239171)
(-0.0722185 -0.0326019 0.135417)
(0.00609416 -0.0232035 0.163695)
(0.511217 -0.0330668 -0.213366)
(0.528342 -0.00628837 0.179013)
(0.0803963 0.0544128 0.0442637)
(-0.00999508 0.0401823 0.0106133)
(0.0716384 -0.082619 0.225146)
(-0.0923513 0.00144268 0.0906867)
(0.03902 -0.0338569 0.229657)
(0.544582 -0.0498381 -0.286737)
(0.116312 0.11584 0.197817)
(0.00350949 0.0636069 0.216035)
(0.524627 0.0198555 -0.28801)
(0.0774355 -0.184656 0.160359)
(0.154247 -0.170066 0.178518)
(0.213886 -0.129587 -0.030112)
(0.0861087 -0.160558 0.0209595)
(0.146736 -0.214773 0.179335)
(0.176162 -0.0318228 -0.142384)
(0.199036 0.0547037 0.0401452)
(0.0771155 0.0748327 -0.0155313)
(-0.111263 0.0126814 0.0455966)
(0.270733 0.0908716 -0.0729148)
(0.26096 -0.023631 0.0335419)
(-0.125123 0.00661223 0.0717125)
(-0.286602 0.00925473 0.0698335)
(0.19187 0.0107206 -0.166865)
(0.134294 0.0175078 0.0747511)
(0.0633794 0.020591 0.00316691)
(-0.234289 0.0146632 0.0270024)
(0.374975 -0.00380733 -0.0148238)
(0.289388 0.00794771 -0.000918106)
(-0.17064 -0.0225552 0.0764418)
(-0.279805 -0.0192346 0.0785057)
(0.18766 -0.0157505 -0.172415)
(0.0924883 0.0186517 0.0801344)
(0.0673085 0.0106791 0.00755895)
(-0.158267 0.0203136 0.0343787)
(0.331438 0.0394842 -0.0497671)
(0.291592 -0.071186 0.0168021)
(-0.175007 -0.0471684 0.0754737)
(-0.280026 -0.0457204 0.0722551)
(0.191293 -0.0308408 -0.171495)
(0.140772 0.0311874 0.0792804)
(0.0729213 0.0151624 -0.000129104)
(-0.218741 0.0221271 0.0180907)
(0.376272 0.063865 -0.00605219)
(0.247718 -0.0267736 0.0125009)
(-0.0909447 -0.0690615 0.0676349)
(-0.264175 -0.0708623 0.0477035)
(0.195914 -0.0488234 -0.160125)
(0.181585 0.0222398 0.0467258)
(0.105662 -0.00853401 -0.0176363)
(-0.0529429 -0.100302 0.052661)
(-0.152321 -0.0578828 0.0315055)
(0.146085 0.0562222 -0.0906979)
(0.178227 0.110639 -0.00870358)
(-0.107297 -0.0175992 0.00490052)
(0.285048 -0.157628 0.0874159)
(0.122164 -0.227192 0.144213)
(0.165039 -0.0129216 0.106417)
(0.0263969 0.0211731 -0.0388148)
(-0.153153 0.0326121 -0.0767994)
(0.149694 -0.0178333 0.0183214)
(0.10589 0.0565348 -0.110719)
(0.0420152 0.0425706 -0.0911186)
(-0.267216 0.0208501 0.00129274)
(0.359838 0.000507452 -0.0286304)
(0.210575 0.00202834 0.101362)
(-0.0563226 0.00686152 -0.0558047)
(-0.167113 0.0280779 -0.0891453)
(0.194008 -0.016944 0.0837925)
(0.133142 0.0257577 -0.0778365)
(0.0598081 0.0304482 -0.104687)
(-0.260413 0.0330534 -0.00390714)
(0.360717 0.0244382 0.0155584)
(0.227229 -0.0225464 0.0996891)
(-0.060286 -0.024786 -0.0652956)
(-0.165615 -0.0183693 -0.098618)
(0.181937 -0.0213729 0.087623)
(0.088475 0.0181307 -0.0596655)
(0.0652421 0.0123951 -0.103533)
(-0.240094 0.018875 0.00289289)
(0.362164 0.0332932 -0.0115097)
(0.224703 -0.0554024 0.0869943)
(-0.059362 -0.0515522 -0.0620084)
(-0.157247 -0.0628684 -0.0892452)
(0.202623 -0.0112881 0.0857035)
(0.124328 -0.0115693 -0.064368)
(0.0723539 0.00696642 -0.0990393)
(-0.251373 -0.000598742 -0.00457314)
(0.368936 0.0506583 0.0136684)
(0.176356 -0.0432108 0.127153)
(0.0177275 -0.0660208 -0.0515869)
(-0.119739 -0.0719566 -0.084785)
(0.18499 -0.0120766 0.0413891)
(0.258487 0.00818351 -0.113113)
(0.0805087 -0.00818412 -0.0809971)
(0.0487805 -0.0887425 -0.0475157)
(-0.0970889 -0.0586271 -0.0683755)
(0.186602 -0.0188904 -0.00229693)
(-0.049494 0.0275965 -0.119164)
(0.0665709 -0.12407 -0.172345)
(0.14212 -0.0996836 -0.0577235)
(0.816758 -0.0239136 0.0345821)
(-0.00324113 -0.441722 -0.19282)
(0.0154712 -0.395742 -0.197459)
(-0.027676 0.242096 -0.137964)
(0.0518935 0.0392845 -0.253759)
(-0.383376 0.00348236 0.209729)
(0.125534 0.0660886 0.0026526)
(0.168587 0.015251 -0.176723)
(-0.0381434 0.0564278 -0.108493)
(0.112172 0.0337701 -0.251785)
(0.00172914 0.08436 -0.24821)
(0.164084 0.0252706 -0.0829625)
(0.182676 0.0145157 -0.12083)
(0.0729587 0.165897 -0.211293)
(0.0404031 0.162106 -0.225023)
(0.122814 0.0365809 -0.246843)
(-0.285342 0.0256436 0.24948)
(0.170498 -0.0284023 -0.0176517)
(0.158424 0.0106326 -0.171001)
(-0.103487 0.140425 -0.152659)
(-0.0180826 -0.0427399 -0.255808)
(0.12269 0.00184378 -0.115783)
(0.283491 -0.00100374 0.0229527)
(0.290584 -0.0253836 -0.134444)
(0.159449 0.00516145 -0.147521)
(0.0543844 0.0328001 -0.257274)
(0.106389 0.0247034 -0.261364)
(-0.331537 0.0189028 0.221353)
(0.194563 -0.00555932 -0.0112302)
(0.117416 -0.025905 -0.178544)
(-0.147275 -0.0159467 -0.149756)
(0.0974753 -0.0137132 -0.22032)
(0.144037 -0.0110367 -0.0675767)
(0.322413 -0.00829559 0.0190837)
(0.350049 0.00558411 -0.10194)
(0.182856 0.00526494 -0.139602)
(0.0589137 0.014837 -0.2327)
(0.114545 0.0167242 -0.260167)
(-0.280124 0.0191496 0.228859)
(0.184386 -0.0453859 -0.0268563)
(0.147028 -0.056262 -0.174527)
(-0.0970714 -0.167014 -0.150203)
(-0.000895323 -0.0130838 -0.249011)
(0.135618 -0.00972334 -0.100061)
(0.277347 -0.027284 -0.0167847)
(0.297648 0.00753077 -0.0834308)
(0.168449 0.0082636 -0.153379)
(0.0334588 0.0162815 -0.2698)
(0.11584 0.0164258 -0.256073)
(-0.313086 0.0139119 0.223002)
(0.138609 -0.0499088 -0.0106165)
(0.195566 -0.0606055 -0.17666)
(-0.0256248 -0.0795504 -0.115826)
(0.134834 -0.0387561 -0.253264)
(0.104373 -0.0878325 -0.178205)
(0.193715 -0.0225959 -0.069537)
(0.205764 -0.00579936 -0.118065)
(0.0534325 -0.145697 -0.275482)
(0.0532501 -0.0776888 -0.201075)
(0.152822 0.00510297 -0.211255)
(-0.265692 0.0201932 0.22632)
(0.113991 -0.0914388 -0.0345474)
(0.24333 -0.0699703 -0.176261)
(0.0514984 -0.0487907 -0.135084)
(0.118098 -0.0806928 -0.272105)
(0.058272 -0.0706809 -0.273866)
(0.107142 -0.109692 -0.264593)
(0.150587 -0.0951074 -0.204974)
(0.168235 -0.0455326 -0.137401)
(-0.193794 -0.170653 -0.297664)
(0.112254 -0.161319 -0.274591)
(0.0585241 -0.113398 -0.234046)
(0.0748884 -0.0766828 -0.236878)
(0.0207641 -0.284426 -0.357601)
(0.0180061 -0.263171 -0.358948)
(0.128523 0.121168 -0.133824)
(0.0276958 0.0739524 -0.315168)
(0.0877286 0.077021 -0.261559)
(-0.0143276 0.0763562 -0.120473)
(0.187689 0.178941 -0.150449)
(-0.0775403 0.016255 -0.154186)
(-0.110982 0.0152111 0.202349)
(0.350399 -0.00260594 -0.0046423)
(-0.305397 -0.0272028 -0.200319)
(0.542002 0.10239 1.20695e-05)
(0.0994495 0.0607473 -0.162631)
(0.101441 0.0230544 -0.221965)
(0.0281168 0.0295136 -0.2471)
(0.094678 0.0339688 -0.200289)
(0.0289479 0.0537647 -0.282637)
(0.146021 0.0266386 -0.114555)
(-0.0370626 -0.00175465 -0.147525)
(-0.100617 0.032368 0.201223)
(0.381213 -0.0156466 0.00852074)
(-0.264124 -0.010684 -0.194135)
(0.482079 0.0290055 0.0114048)
(0.123618 0.0198036 -0.13352)
(0.0968065 0.0110206 -0.187388)
(0.0408217 0.0119307 -0.222316)
(0.100798 0.0150058 -0.172095)
(0.0586743 0.0168008 -0.253454)
(0.110717 0.0251274 -0.0296818)
(-0.00955618 0.0268586 -0.148671)
(-0.107413 0.00967399 0.19472)
(0.376265 -0.032003 -0.00346329)
(-0.246113 -0.0215904 -0.200524)
(0.476305 -0.0131211 0.0141804)
(0.136205 -0.0084012 -0.129875)
(0.105339 -0.00748353 -0.179772)
(0.0499043 -0.00135692 -0.210997)
(0.105029 -0.00103453 -0.167998)
(0.0646896 0.00601237 -0.246355)
(0.108895 0.00910414 -0.0304868)
(-0.00971392 0.017269 -0.135935)
(-0.0953276 0.0216337 0.196829)
(0.388626 -0.0536606 -0.0095935)
(-0.261157 -0.0257463 -0.190471)
(0.484128 -0.0475735 0.00737435)
(0.132192 -0.0266671 -0.134226)
(0.106979 -0.0221203 -0.188938)
(0.0543413 -0.0147163 -0.215162)
(0.110065 -0.0134504 -0.178162)
(0.0575373 -0.0200677 -0.256749)
(0.12926 0.0141011 -0.0318051)
(-0.00840034 0.0472821 -0.145372)
(-0.0900724 -0.00238847 0.189374)
(0.361394 -0.0571522 -0.0079816)
(-0.284525 -0.0318034 -0.186702)
(0.533108 -0.0680857 -0.0100762)
(0.123466 -0.0500554 -0.158987)
(0.125251 -0.0207497 -0.2242)
(0.062473 -0.0234093 -0.242021)
(0.114072 -0.0170354 -0.209633)
(0.0601941 -0.0446233 -0.255738)
(0.16108 -0.0496381 -0.130799)
(-0.0454839 0.0240185 -0.11946)
(-0.0847969 0.0162833 0.191139)
(0.371654 -0.0452909 -0.0171343)
(-0.271125 -0.172784 -0.175676)
(0.598402 -0.101401 -0.0727815)
(0.0265425 -0.0134775 -0.187753)
(0.14572 -0.0766973 -0.148266)
(0.0736999 -0.0644979 -0.28047)
(0.102082 -0.0570614 -0.252358)
(-0.0833369 0.135885 0.176341)
(0.354234 -0.0324752 -0.195235)
(0.228398 -0.104435 -0.16411)
(0.105157 -0.0705095 -0.192092)
(0.115492 -0.015172 -0.165949)
(0.0843045 -0.0146657 0.0944479)
(0.0446009 -0.0059515 -0.0868549)
(0.0390166 -0.0121212 0.0874141)
(0.0907174 -0.00033241 -0.112406)
(-0.0219698 0.000841427 0.151789)
(0.112111 0.00840136 0.0147265)
(0.289439 0.00717531 0.0839623)
(-0.158836 -0.0243308 -0.16062)
(0.132575 -0.0221469 0.133168)
(-0.0288611 -0.0114647 -0.128135)
(0.0863996 -0.0167634 0.0902838)
(0.0475431 0.00171122 -0.0871174)
(0.0438222 -0.00679889 0.0898986)
(0.0898442 0.00577747 -0.111354)
(-0.0147124 0.00354138 0.17017)
(0.106778 0.019472 0.0255273)
(0.285182 -0.0278626 0.0683674)
(-0.14779 -0.0219558 -0.166012)
(0.134917 -0.0272027 0.120435)
(-0.0193216 -0.0113607 -0.119021)
(0.0910188 -0.0136916 0.0812503)
(0.0536784 0.00105481 -0.0797606)
(0.0477053 -0.0038496 0.0871825)
(0.0963277 0.0106078 -0.0962442)
(-0.021562 0.00545072 0.173407)
(0.120964 0.0171659 0.0239034)
(0.300369 -0.0257295 0.0676649)
(-0.153676 -0.0188955 -0.157695)
(0.139452 -0.0219602 0.120203)
(-0.0181384 -0.00858861 -0.121144)
(0.0968611 -0.0140159 0.0788596)
(0.0570147 0.00168864 -0.0779781)
(0.0542639 -0.00481544 0.0836487)
(0.0973003 0.011661 -0.0912946)
(-0.00958466 0.00348292 0.167599)
(0.116014 0.0250046 0.0249104)
(0.299537 -0.0499531 0.0649883)
(-0.143454 -0.0121627 -0.161894)
(0.144945 -0.0242304 0.113407)
(-0.0109815 -0.00665327 -0.114608)
(0.10056 -0.0140571 0.0761183)
(0.0623395 0.00333238 -0.0764833)
(0.0565092 -0.00364431 0.0788932)
(0.106133 0.0173845 -0.100985)
(-0.00717127 0.00410534 0.160741)
(0.131513 0.0283187 0.0295967)
(0.300055 -0.0578103 0.0752085)
(-0.1313 -0.0094874 -0.152086)
(0.146591 -0.0273769 0.107147)
(-0.00482898 -0.00332804 -0.115983)
(0.107043 -0.0144275 0.0740365)
(0.0661256 0.00628353 -0.0731563)
(0.0625715 -0.00295337 0.069036)
(0.109125 0.0222445 -0.0907394)
(0.012824 0.00478773 0.131381)
(0.123719 0.0316569 0.0194707)
(0.299092 -0.0814189 0.0722799)
(-0.126983 -0.000199753 -0.162527)
(0.155649 -0.0236656 0.0528869)
(0.00705369 0.0075852 -0.106427)
(0.112919 -0.0114353 0.0791306)
(0.0727792 0.0131876 -0.0717684)
(0.0679299 0.0040006 0.0700117)
(0.0354663 0.0124551 -0.103028)
(0.108251 -0.0184453 0.0751777)
(0.0851079 0.0236337 -0.0630577)
(0.496663 0.0195307 0.13541)
(0.493585 0.00626303 0.176141)
(0.198718 0.0266031 -0.100585)
(-0.0349674 -0.0771848 0.367319)
(0.0344025 0.0669866 -0.409794)
(0.252336 -0.00661312 -0.0418554)
(0.666442 -0.00196771 -0.0748981)
(0.0490514 -0.00583779 -0.239798)
(-0.0391692 -0.0278966 0.314763)
(0.140868 0.0760844 -0.203254)
(0.64815 0.00323861 -0.0429129)
(0.434619 0.00448181 0.000150541)
(0.141089 0.0571701 -0.203293)
(0.0366564 -0.106875 0.368468)
(0.0336639 0.0483405 -0.459109)
(0.477596 0.0219873 0.136005)
(0.416086 0.0256149 0.0289343)
(0.440559 -0.0246068 0.0495087)
(-0.0643534 -0.0211677 -0.440109)
(0.0632236 -0.011264 0.358918)
(0.0396982 -0.0353197 -0.425432)
(0.480749 0.00825025 0.186888)
(0.223504 0.0335377 -0.120349)
(0.359302 -0.0277142 0.214172)
(0.0313139 0.0148082 -0.111539)
(0.0591363 0.048121 -0.433501)
(0.0354783 -0.0398433 0.371596)
(0.074887 0.00502336 -0.449231)
(0.232304 -0.0144262 -0.0170111)
(0.654353 0.00236933 -0.059341)
(0.21533 -0.0186876 0.0700558)
(0.574512 -0.0106654 -0.0658058)
(0.102694 0.0800414 -0.37816)
(-0.00963784 -0.041828 0.311375)
(0.0821277 0.00893734 -0.358235)
(0.640648 0.00297687 -0.032832)
(0.450916 -0.00134641 0.00502612)
(0.567178 -0.0119848 -0.0383685)
(0.578859 0.00704421 0.00969496)
(0.0453233 0.0236829 -0.417083)
(0.0997353 0.0039588 0.395967)
(0.0427517 0.00870055 -0.431494)
(0.428512 0.0196947 0.0255788)
(0.420793 -0.00619441 0.0617413)
(0.569362 0.00664138 0.0610346)
(0.359228 -0.0090469 0.038036)
(0.06896 -0.00970856 -0.444942)
(0.0930179 0.000245717 0.386429)
(0.0460552 0.00303687 -0.45388)
(0.33494 -0.0142678 0.225682)
(0.0400042 0.00800169 -0.109465)
(0.289116 0.0166085 0.247557)
(0.0441853 0.00798944 -0.103432)
(0.0756062 0.00407892 -0.453338)
(0.0363837 0.0374701 0.383336)
(0.0915293 -0.0108114 -0.446407)
(0.214933 -0.014295 0.0766302)
(0.587734 -0.00777512 -0.0644506)
(0.219249 -0.000785121 0.0361179)
(0.573113 -0.0320136 -0.0731476)
(0.0939648 0.00359042 -0.402171)
(0.0222971 0.0267099 0.346667)
(0.093286 -0.0392998 -0.38575)
(0.580644 -0.00935937 -0.0329823)
(0.579669 0.00558087 0.0102946)
(0.568441 -0.0245638 -0.0436281)
(0.503395 -0.0186487 0.0217741)
(0.0368554 0.00697248 -0.432695)
(0.0980847 0.0224646 0.355709)
(0.0461827 -0.0025284 -0.44005)
(0.570234 0.00564086 0.060394)
(0.339586 -0.00201617 0.0375265)
(0.497791 0.00340048 0.0482331)
(0.365156 -0.0190044 0.0526537)
(0.0536351 0.00692776 -0.456835)
(0.0862398 -0.0108755 0.389919)
(0.0523391 0.00240333 -0.460305)
(0.273205 0.000824531 0.253131)
(0.0484697 0.0102244 -0.103766)
(0.295983 0.0105476 0.253689)
(0.0517632 0.0108441 -0.098854)
(0.0863752 -0.00935252 -0.376825)
(-0.00237244 0.0128962 0.427104)
(-0.000557295 -0.113402 -0.447464)
(0.239767 -0.0134128 -0.0330432)
(0.618895 -0.0320908 -0.0760034)
(0.367161 -0.0131379 -0.0866566)
(0.655215 -0.00044936 -0.0360748)
(0.101915 -0.0556683 -0.373972)
(0.112336 0.0118206 0.32994)
(0.186265 -0.0327041 -0.153306)
(0.603591 -0.0231292 -0.0512885)
(0.501998 -0.0225361 0.0239343)
(0.0425539 -0.000109759 -0.376108)
(0.0354218 0.0487995 0.366845)
(0.0757513 -0.0975848 -0.431382)
(0.496592 -0.00248888 0.0448327)
(0.398188 0.00501386 0.0478987)
(0.481564 0.0099496 0.1092)
(0.0752127 0.0127301 -0.433556)
(0.0626585 0.0158359 0.450055)
(0.0785533 0.0339875 -0.440869)
(0.313718 0.000776004 0.241403)
(0.0542829 0.0109637 -0.0933079)
(0.472949 0.0307348 0.190309)
(0.0589664 0.023141 -0.11491)
(0.0382356 -0.125059 -0.206148)
(0.0801308 0.0333896 0.325361)
(0.0686164 -0.0454377 -0.16846)
(0.390828 -0.0189858 -0.10844)
(0.491104 -0.0510774 -0.222151)
(0.107818 0.012292 -0.159916)
(0.0903875 -0.031862 0.296768)
(0.104828 -0.00821821 -0.206345)
(0.127961 -0.087777 -0.235151)
(0.0972535 0.0134042 0.28012)
(0.136037 -0.0140325 -0.183188)
(0.488023 0.00491111 0.107081)
(0.575248 -0.00611378 0.132881)
(0.0234638 0.0847961 -0.424376)
(0.0117426 0.0628187 0.39218)
(0.0706883 -0.00966168 -0.423911)
(0.482821 0.0227024 0.177511)
(0.121008 -0.00546234 -0.129643)
(0.627139 0.00802599 0.173836)
(0.0798914 0.029008 -0.119012)
(0.0768192 -0.0312015 -0.17087)
(0.0788233 -0.10794 0.28855)
(0.0837579 0.0162907 -0.195097)
(0.531033 -0.0479577 -0.242399)
(0.434228 -0.000726776 -0.236363)
(0.111408 -0.0136838 -0.200734)
(0.0929031 -0.0544449 0.282245)
(0.121513 0.0078803 -0.213684)
(0.124117 0.000192954 -0.204259)
(0.0990944 -0.0268577 0.247604)
(0.0845977 0.0543828 -0.178193)
(0.58089 0.0110976 0.118923)
(0.570349 -0.0637299 0.210617)
(-0.0078014 -0.0739542 0.189612)
(0.613238 0.0198707 0.164642)
(0.565067 -0.0634906 0.226732)
(-0.0371558 -0.0215584 -0.510588)
(-0.0732131 -0.0732401 0.439085)
(0.0688297 -0.013781 -0.466392)
(0.0210519 0.0556949 0.240728)
(0.259094 0.034594 -0.195585)
(0.0865705 -0.14501 0.247096)
(0.0253481 -0.0592231 -0.23735)
(0.0918643 0.0336062 -0.194598)
(0.0361432 -0.218341 0.376481)
(0.0246747 0.12857 -0.523201)
(0.360085 0.00525316 -0.178653)
(0.105855 -0.124497 0.123981)
(0.183716 0.106958 -0.249704)
(0.121577 0.0110875 -0.225431)
(0.0443633 -0.272738 0.246194)
(0.0998962 0.197968 -0.233025)
(0.190259 -0.157826 -0.0115774)
(0.248487 0.139113 -0.111231)
(0.15225 0.0875017 -0.206261)
(0.0174614 -0.205162 0.229849)
(0.13949 0.175876 -0.336567)
(0.557499 -0.0609381 0.207917)
(0.220121 -0.105872 0.0668441)
(0.0551097 -0.0257187 -0.502325)
(0.111513 0.246232 -0.490338)
(0.0227894 -0.193116 0.303107)
(0.10518 -0.156989 -0.12815)
(0.0919588 0.0935581 -0.266823)
(0.511703 0.0363705 0.112751)
(0.553844 0.02728 0.153547)
(0.167474 0.0168206 -0.0391512)
(0.256432 0.104877 0.221358)
(0.0795677 -0.0589129 0.168738)
(0.107904 0.0253246 0.0502112)
(0.0126511 -0.00730212 0.186412)
(0.340541 0.00559631 -0.152193)
(0.19412 -0.00104232 -0.12397)
(0.389188 0.00652065 -0.144758)
(0.491402 0.0363836 0.116478)
(0.459202 -0.0296114 0.0943638)
(0.190986 0.0336265 -0.0491531)
(0.445329 -0.0284879 0.194971)
(0.0948497 0.0104129 -0.112161)
(0.246794 0.0330862 0.226914)
(0.153935 -0.00849621 0.197862)
(0.115166 0.0708093 -0.295297)
(0.0511911 0.00207938 0.128379)
(0.120906 0.0132362 -0.313263)
(0.10374 0.0343615 0.0403311)
(0.129174 0.0303609 -0.0131039)
(0.0470112 0.00674527 0.0405714)
(0.108647 0.0129595 -0.0176489)
(0.330223 -0.00147272 -0.147296)
(0.0119901 -0.0123601 0.189743)
(0.258155 -0.00560785 -0.111324)
(0.19358 -0.002541 -0.115571)
(0.183567 -0.0170021 -0.109849)
(0.288261 -0.0106143 -0.0328049)
(0.583011 -0.00933125 -0.0617301)
(0.564836 -0.0145644 -0.0435229)
(0.4307 0.00862388 0.0127873)
(0.443177 -0.016028 0.10915)
(0.428745 0.00879464 0.0369649)
(0.411014 -0.0134897 0.132653)
(0.0958864 0.00943105 -0.113127)
(0.404683 -0.00111723 0.22383)
(0.0932471 0.00706796 -0.111409)
(0.157104 -0.0186147 0.194625)
(0.132993 0.0060774 0.176014)
(0.102305 0.0149409 -0.31757)
(0.0499993 0.0104333 0.113266)
(0.109026 0.0106416 -0.31092)
(0.0535108 0.0112153 0.0394034)
(0.111745 0.0140142 -0.0205439)
(0.0371279 0.00360142 0.0686294)
(0.117317 0.013729 -0.021584)
(0.254201 -0.0123705 -0.110334)
(0.0163828 -0.018646 0.18402)
(0.284539 -0.00574742 -0.153087)
(0.184598 -0.016315 -0.109203)
(0.186684 -0.0238868 -0.111901)
(0.606682 -0.00470054 -0.0648753)
(0.310122 -0.00091072 -0.0862905)
(0.613664 -0.0182402 -0.0606077)
(0.429316 0.00676944 0.0130705)
(0.595332 -0.0026352 -0.0544013)
(0.496617 -0.0175662 0.0289841)
(0.403084 -0.0114228 0.132639)
(0.490619 -0.0050615 0.0416653)
(0.394099 -0.00185109 0.116566)
(0.0965598 0.00924515 -0.111933)
(0.388221 0.0108273 0.22303)
(0.0968476 0.0078613 -0.106693)
(0.132982 0.00766984 0.175095)
(0.169656 0.043733 0.187736)
(0.109375 0.0122538 -0.311785)
(0.0528045 0.0143543 0.110955)
(0.109432 0.00716741 -0.312405)
(0.0387133 0.0178088 0.0691707)
(0.118877 0.0146114 -0.022171)
(0.0718998 0.00965438 0.0489723)
(0.118186 0.0123032 -0.0215376)
(0.314474 -0.0191665 -0.168828)
(0.0186048 -0.0240185 0.176493)
(0.454584 -0.0293159 -0.216141)
(0.189561 -0.0252154 -0.114494)
(0.208275 -0.0428377 -0.143842)
(0.628031 -0.0336287 -0.0531713)
(0.507265 -0.030945 -0.203121)
(0.413582 0.00518857 0.117123)
(0.499096 -0.00898713 0.141188)
(0.103105 0.00541146 -0.105768)
(0.515448 0.0116391 0.177857)
(0.13587 0.0112717 -0.0876851)
(0.166728 0.0239929 0.19103)
(0.196729 0.0355295 0.235295)
(0.113051 0.00892969 -0.304339)
(0.0711291 0.059337 0.102663)
(0.106417 -0.0114595 -0.307659)
(0.0711329 0.0177214 0.0471183)
(0.123468 0.0128681 -0.0196379)
(0.076759 0.00606459 0.054194)
(0.124836 0.00868701 -0.0170061)
(0.458609 -0.03527 -0.220389)
(0.0381525 -0.0219359 0.226092)
(0.522031 -0.0422509 -0.272236)
(0.205463 -0.0414849 -0.150364)
(0.172997 0.0279432 -0.107683)
(0.53092 -0.0471054 -0.282357)
(0.503672 -0.0153792 0.140964)
(0.174774 0.00786964 -0.0975712)
(0.178455 0.0125374 -0.0711647)
(0.198085 0.00971465 0.241085)
(0.123915 -0.0164847 -0.298837)
(0.162522 0.0228146 0.122765)
(0.199961 -0.0275105 -0.138339)
(0.0787834 0.00972682 0.060988)
(0.126128 0.00855952 -0.0126262)
(0.527476 -0.0455312 -0.280604)
(-0.0332464 -0.00776549 0.100269)
(0.472157 0.0386343 -0.311766)
(0.15568 0.0236322 -0.0925219)
(-0.0217742 -0.01861 -0.00518271)
(0.532788 0.0132537 -0.291134)
(0.594057 -0.0502159 0.218992)
(0.0282743 -0.0591801 -0.143317)
(0.072274 -0.0820108 -0.166411)
(0.146648 0.104897 -0.0296648)
(0.00434043 -0.16518 0.00795772)
(0.461738 0.0345607 -0.28988)
(0.124595 -0.148632 0.136611)
(0.161542 -0.0883659 -0.133986)
(-0.059897 -0.0263907 -0.0258645)
(0.192839 -0.110839 0.0685489)
(0.276684 0.0235315 -0.24683)
(0.274782 -0.0929139 -0.084466)
(0.332284 0.0558364 -0.0916322)
(0.300633 -0.0565474 0.0285086)
(0.0284754 -0.122515 -0.210894)
(0.154553 -0.0993355 -0.0517948)
(0.192563 0.0422066 -0.304904)
(0.741959 -0.158888 -0.0759881)
(0.223381 0.0500526 -0.29186)
(0.15741 -0.246302 0.0229839)
(0.220026 0.176227 -0.221286)
(1.23998 0.0786161 -0.184969)
(0.566656 -0.162768 -0.0702157)
(0.218606 0.225508 -0.0085695)
(0.255262 0.0890872 -0.157289)
(0.12391 -0.341122 0.103404)
(0.0850307 0.450354 -0.117518)
(1.19927 0.0685032 -0.144454)
(0.776932 -0.0593391 0.0431427)
(0.186624 -0.264382 0.087277)
(0.230887 0.216114 -0.0626209)
(0.143853 0.0500997 -0.285839)
(0.57672 -0.0333496 -0.0395221)
(0.015477 0.0155787 -0.0448228)
(0.115601 -0.032144 0.0416017)
(0.328874 0.152373 0.00507749)