/*--------------------------------*- C++ -*----------------------------------*\
  =========                 |
  \\      /  F ield         | OpenFOAM: The Open Source CFD Toolbox
   \\    /   O peration     | Website:  https://openfoam.org
    \\  /    A nd           | Version:  10
     \\/     M anipulation  |
\*---------------------------------------------------------------------------*/
FoamFile
{
    format      ascii;
    class       volVectorField;
    location    "0.1";
    object      U_0;
}
// * * * * * * * * * * * * * * * * * * * * * * * * * * * * * * * * * * * * * //

dimensions      [0 1 -1 0 0 0 0];

internalField   nonuniform List<vector> 
115408
(
(0.0317754 0.0030207 0.0199803)
(0.0508679 0.000256271 -0.0111249)
(0.0982262 -0.0032381 0.0408788)
(-0.0182565 -2.85835e-05 -0.0319555)
(0.0482892 -0.0181138 0.0733891)
(0.0796149 0.00796378 0.0678038)
(-0.00186515 -0.012681 -0.128851)
(0.086235 0.00157074 0.051752)
(-0.0157139 -0.0295583 0.0140673)
(0.0404498 0.00218622 -0.00782173)
(0.0463392 -0.0140887 0.0311318)
(0.0530681 0.00772687 -0.00519738)
(0.0823967 0.00509982 0.0262165)
(-0.00250486 -0.0225993 0.115735)
(0.0779363 -0.037522 -0.00354223)
(0.0600459 -0.00557428 0.0476792)
(0.0656837 -0.00708194 -0.014705)
(0.0730245 0.0234073 -0.079563)
(0.0245788 -0.0259593 0.106712)
(0.0825037 -0.0253115 -0.0349351)
(0.0742869 0.00313778 0.0250774)
(0.0600905 0.00204043 -0.0239753)
(0.112275 0.0252842 0.0295651)
(0.0379574 -0.0112116 0.0677225)
(0.081106 -0.0103951 -0.0396827)
(0.0836702 0.0037076 0.0296152)
(0.0702624 0.00385835 -0.0318336)
(0.121543 0.0190359 0.0383745)
(0.0406331 0.00662104 0.0711291)
(0.103332 0.000902689 -0.00235241)
(0.0941138 0.016507 0.0233838)
(0.0770562 0.00243415 -0.0213158)
(0.125414 0.0244114 0.0298403)
(0.120858 0.0170694 0.0594275)
(0.0943886 0.0204528 -0.00800855)
(0.0953958 0.0203437 -0.0988035)
(-0.0252382 0.0542339 0.348691)
(0.102576 -0.148698 0.306551)
(0.0352559 -0.0794446 0.375996)
(-0.305954 0.108491 -0.0219387)
(0.262325 -0.0311751 0.0521577)
(0.116705 0.0377477 -0.0661787)
(0.0388537 -0.116997 0.0887928)
(-0.105824 0.0463499 -0.104134)
(0.264076 -0.00649785 0.397288)
(-0.176059 -0.0398216 -0.035376)
(0.183614 0.00164506 -0.00872058)
(-0.06275 0.134482 -0.0653478)
(0.141923 -0.0581815 -0.0249626)
(0.16557 -0.0779076 -0.0608442)
(-0.024441 0.147982 0.0806593)
(0.105526 -0.0948381 -0.0596243)
(0.0757267 -0.0125995 -0.0298608)
(0.0571346 0.119958 -0.0531719)
(-0.00507752 -0.13648 0.0204943)
(0.021508 0.0902869 -0.0581184)
(0.133761 -0.00186825 -0.00645991)
(0.234321 0.0808211 -0.0369356)
(-0.270433 0.000613857 0.00158857)
(0.206061 0.310845 0.277814)
(0.0262582 0.284628 0.28572)
(0.0229367 0.36539 0.257223)
(-0.174168 0.0501008 0.0258244)
(0.0628652 -0.109991 -0.0984917)
(0.084191 0.0876305 -0.0266259)
(-0.121341 0.117732 -0.105128)
(0.0617748 0.384457 0.309943)
(0.0884654 -0.0581249 0.270701)
(0.0346789 0.10395 0.359032)
(0.0298154 0.0377348 0.331751)
(-0.0472677 0.489839 0.314519)
(-0.267916 -0.133016 -0.0203326)
(0.264009 0.0893477 0.0331185)
(-0.144228 -0.0404202 -0.0968335)
(0.231219 0.0697828 0.321039)
(0.123473 -0.0113355 0.240899)
(0.0386152 0.0252712 0.343307)
(0.0560331 0.026794 0.310625)
(0.05243 0.0848395 0.405003)
(-0.15535 -0.12353 -0.127499)
(0.304469 -0.140361 0.299309)
(0.1897 -0.0525928 0.223055)
(-0.0258527 0.0092544 0.358834)
(0.0625623 -0.00138544 0.29573)
(0.0712836 -0.170729 0.370773)
(0.117028 -0.0857929 0.0327361)
(-0.165169 0.0560731 -0.097112)
(0.354944 -0.0306168 0.319414)
(0.175521 -0.073351 0.256566)
(-0.172407 -0.0468708 0.0391862)
(0.11634 -0.0976047 -0.0145154)
(0.122773 -0.0327227 0.0112182)
(0.122434 0.022786 -0.00976693)
(0.0804988 0.0740509 0.469723)
(0.0851288 0.0111716 0.504135)
(-0.086907 0.0656362 0.230928)
(-0.0327369 0.0327851 0.451037)
(0.0994378 -0.221302 0.415223)
(-0.396985 0.171581 -0.0869995)
(0.378717 -0.048214 0.0369499)
(-0.240921 -0.0294118 0.132295)
(0.205146 0.0345413 0.304869)
(0.00175978 0.00442012 0.393982)
(0.0210238 0.0793436 0.280242)
(0.116201 0.0780976 0.268731)
(-0.0144347 0.0679461 0.466801)
(0.0354771 0.0648809 0.357031)
(0.108428 0.0460465 0.399189)
(-0.0228357 -0.127058 0.031826)
(-0.133553 0.154138 -0.102691)
(0.247541 -0.0104837 0.00354888)
(-0.249677 -0.00553857 0.12344)
(0.200855 -0.020301 0.315406)
(-0.0103019 0.0195927 0.355982)
(0.0306422 -0.0209466 0.311228)
(0.0271424 0.0422174 0.339578)
(0.0495321 0.0453622 0.35264)
(0.0305247 -0.0221543 0.380751)
(0.114443 0.0447291 0.417143)
(-0.0747958 0.014978 0.0029449)
(-0.0791814 0.0256546 -0.0957051)
(0.267487 0.0218493 0.0270942)
(-0.225514 -0.033622 0.108758)
(0.21741 -0.0186112 0.34226)
(-0.0521253 -0.0549313 0.333236)
(0.118055 -0.0756294 0.127817)
(0.0825863 -0.0182152 0.29329)
(0.00999541 -0.0455922 0.17816)
(-0.0520511 -0.0119579 0.501456)
(0.107744 -0.0136888 0.35125)
(-0.0217927 0.162531 0.0444286)
(-0.118112 -0.115987 -0.117497)
(0.261311 0.110069 0.0199388)
(-0.244706 -0.0203265 0.173955)
(0.206907 -0.0439763 0.292509)
(0.092001 -0.0510305 0.184657)
(0.138487 -0.0373479 0.375802)
(0.0670275 -0.0147654 0.433594)
(0.0396822 -0.00814216 0.36947)
(-0.0700532 -0.000694925 0.11005)
(-0.0317468 -0.0382949 0.498285)
(-0.0562885 0.615746 0.339265)
(-0.334179 -0.134693 -0.0966765)
(-0.143351 -0.0736749 0.133147)
(0.212219 -0.108449 0.27805)
(0.0804279 -0.0198146 0.212805)
(0.199319 -0.0208953 0.461486)
(0.0872583 -0.00535657 0.404878)
(0.0633963 -0.00850525 0.375747)
(-0.0103969 0.0337026 0.330667)
(0.0271103 -0.235026 0.220998)
(0.11293 -0.0205606 0.26479)
(0.267412 -0.0224269 0.487368)
(0.054996 0.00557908 0.440033)
(0.0609799 0.00387242 0.401948)
(-0.036036 0.0289804 0.22251)
(0.029329 -0.0441941 0.380989)
(0.121761 -0.0436521 0.286144)
(0.214686 -0.0809507 0.245012)
(0.124042 -0.0432708 0.24974)
(-0.0526103 0.00755874 0.480342)
(0.199356 -0.2441 0.299019)
(0.150091 -0.130744 0.281233)
(0.111685 -0.0863659 0.281323)
(0.0902361 -0.0298798 0.430775)
(0.0193245 -0.0853154 0.412716)
(-0.0342494 0.0117732 0.41533)
(0.0324554 -0.109135 0.515078)
(0.144559 0.0690337 0.249355)
(-0.189562 -0.0241253 0.0160436)
(0.274693 0.123681 -0.00436332)
(0.136072 0.0300523 0.0304685)
(-0.0577958 -0.0106931 0.508272)
(0.0731058 -0.00993518 0.169476)
(0.0354532 -0.0264863 0.465479)
(0.0269619 -0.051889 0.380459)
(0.0163911 -0.0267396 0.349862)
(0.0658125 -0.0267221 0.393326)
(0.105016 -0.0102745 0.37626)
(-0.0913002 0.0344514 0.243744)
(-0.0250485 0.00528814 0.585033)
(-0.331535 0.00849039 -0.125632)
(0.381012 0.00147208 -0.00531959)
(0.148828 -0.0219529 0.0407835)
(-0.0344377 -0.0232663 0.501633)
(0.0772212 -0.0198571 0.16178)
(0.0493774 -0.00728812 0.440653)
(0.0325575 -0.0256172 0.396914)
(0.0322437 -0.0270725 0.375715)
(0.0760826 0.0208523 0.369409)
(0.0884118 3.4315e-05 0.394349)
(-0.0954978 0.0174408 0.23707)
(-0.0298394 0.0173546 0.568245)
(-0.277056 0.0150193 -0.093487)
(0.353877 0.0555096 0.0114716)
(0.1572 -0.0763271 0.0667395)
(-0.043797 -0.0397478 0.493588)
(0.0784568 -0.0358187 0.159143)
(0.0516292 -0.00620877 0.431249)
(-0.0124383 0.0286678 0.373198)
(0.0565035 0.0838644 0.283469)
(0.0786197 0.0156305 0.281072)
(0.100663 -0.00968962 0.418156)
(-0.0867544 0.0232764 0.216509)
(-0.0228204 0.0644783 0.602407)
(-0.291067 0.0246391 -0.120175)
(0.373131 0.0198917 -0.00225145)
(0.106875 -0.0687684 0.00224735)
(-0.00520025 -0.0602294 0.515768)
(0.0951289 -0.0327082 0.13588)
(-0.0100573 -0.0369662 0.4063)
(-0.0737535 0.0497806 0.374352)
(0.0862537 0.0088621 0.323682)
(0.0383459 0.118035 0.252911)
(-0.00974337 0.0323195 0.394892)
(-0.00834019 0.199861 0.411301)
(0.095117 0.0625367 0.160415)
(-0.239929 0.0423446 0.0327555)
(-0.0163461 -0.0797306 0.482984)
(0.0944179 -0.0225743 0.174327)
(0.012709 -0.0438265 0.456465)
(0.0852177 0.032113 0.28353)
(0.0991082 -0.0233484 0.268247)
(0.0960433 0.00019851 0.257133)
(-0.02077 0.0857912 0.157242)
(-0.0223935 0.0260939 0.411814)
(-0.09115 -0.0730635 0.491112)
(0.0397977 -0.12999 0.359394)
(0.0499572 -0.0462531 0.362232)
(0.0924803 -0.035287 0.288074)
(-0.0550877 -0.0602274 0.512514)
(0.0273488 -0.142885 0.42659)
(0.0292191 -0.268712 0.357588)
(0.0739118 -0.187742 0.343577)
(0.150813 -0.199021 0.373149)
(0.179593 -0.2662 0.209511)
(0.0734166 -0.0634579 0.326702)
(0.559372 0.0258192 0.159578)
(0.0810143 -0.0256565 0.0969357)
(-0.0161193 0.0568366 0.0547636)
(-0.15622 0.0608964 0.0150358)
(0.300126 0.0537955 -0.0230632)
(0.177695 -0.022095 -0.0991663)
(0.0368225 -0.0182921 0.236917)
(-0.0871537 -0.0198352 0.152629)
(0.0116982 -0.0105622 0.189155)
(0.380491 0.000490402 -0.135631)
(0.426792 -0.0175913 0.208057)
(0.0501041 0.00985812 0.104136)
(-0.0406828 -0.023515 0.0839348)
(-0.259926 0.0214835 0.0131246)
(0.361661 -0.00083857 -0.0312123)
(0.210945 -0.00596685 -0.0616533)
(0.00536515 -0.0273651 0.248892)
(-0.0761455 -0.0217784 0.154402)
(0.0123209 -0.0135911 0.189925)
(0.284755 -0.0131814 -0.028514)
(0.5907 -0.0192638 -0.0385066)
(0.426743 0.00714814 0.0371646)
(0.395768 -0.00512671 0.226134)
(0.0521868 0.0131568 0.105705)
(-0.0371304 0.00977884 0.0784213)
(-0.210762 0.0278036 0.0229542)
(0.34181 0.0245839 -0.0250213)
(0.202239 -0.0685388 -0.0698646)
(0.0122921 -0.0403497 0.247387)
(-0.072561 -0.0311058 0.150459)
(0.0198675 -0.0178896 0.179794)
(0.332014 -0.0073834 -0.121082)
(0.60755 -0.0207678 -0.0507981)
(0.510357 0.00478738 0.0321111)
(0.400633 0.00792553 0.219635)
(0.0559482 0.0190033 0.101847)
(-0.0329645 0.0278879 0.0775616)
(-0.251161 0.00574232 0.0175106)
(0.369806 0.0782346 -0.0457244)
(0.173002 -0.0428652 -0.0568803)
(0.054166 -0.0581851 0.240325)
(-0.0731181 -0.0327864 0.136382)
(0.00482632 -0.0230806 0.164987)
(0.51256 -0.0330536 -0.213611)
(0.528514 -0.00621285 0.179474)
(0.0795277 0.0547494 0.0446376)
(-0.0103009 0.0402146 0.0110483)
(0.0719374 -0.0831335 0.226088)
(-0.0931005 0.000652726 0.0912634)
(0.0381454 -0.0337502 0.231782)
(0.54659 -0.0499185 -0.28782)
(0.117215 0.116375 0.198722)
(0.00282384 0.064831 0.217839)
(0.526677 0.0202313 -0.288158)
(0.0774673 -0.184907 0.161327)
(0.153847 -0.170358 0.18085)
(0.213372 -0.13094 -0.0278479)
(0.0862502 -0.161135 0.0222045)
(0.145799 -0.216142 0.181003)
(0.177941 -0.0322694 -0.143692)
(0.198253 0.054859 0.0402705)
(0.0771914 0.0751138 -0.0154759)
(-0.111417 0.0119553 0.0456197)
(0.270665 0.0915749 -0.0729306)
(0.261252 -0.0236712 0.033239)
(-0.12581 0.00725613 0.0722064)
(-0.28796 0.0097602 0.0703521)
(0.193236 0.0109007 -0.168713)
(0.133804 0.0177954 0.0745739)
(0.0637504 0.0206597 0.00334215)
(-0.234485 0.0144948 0.0268264)
(0.375125 -0.003653 -0.0146522)
(0.290044 0.00786385 -0.000974876)
(-0.171404 -0.0224194 0.0769528)
(-0.281185 -0.019133 0.0790487)
(0.188866 -0.0157109 -0.174324)
(0.0917578 0.0187843 0.0798666)
(0.0677615 0.0106651 0.00779695)
(-0.158397 0.0202903 0.0344074)
(0.331585 0.0395624 -0.0497416)
(0.292211 -0.071028 0.0166271)
(-0.175709 -0.0473001 0.0759534)
(-0.28136 -0.0458476 0.0727674)
(0.192566 -0.0308895 -0.173384)
(0.140323 0.0313273 0.0790964)
(0.073389 0.0152037 2.54303e-05)
(-0.21897 0.022287 0.017926)
(0.376428 0.063821 -0.00583995)
(0.247907 -0.0266706 0.0123996)
(-0.091645 -0.0694501 0.0680505)
(-0.265475 -0.0713704 0.0480618)
(0.197662 -0.0488512 -0.161669)
(0.181053 0.0225343 0.0467712)
(0.10603 -0.00858925 -0.0176076)
(-0.0530013 -0.10111 0.0529489)
(-0.153304 -0.0593152 0.0318443)
(0.147195 0.0573008 -0.0916241)
(0.179083 0.11175 -0.00842953)
(-0.108243 -0.0174351 0.00488462)
(0.283528 -0.159068 0.0874669)
(0.121875 -0.229394 0.145216)
(0.164899 -0.0131185 0.106832)
(0.0264509 0.0218753 -0.0386703)
(-0.154448 0.0332949 -0.0770636)
(0.149818 -0.0182891 0.019078)
(0.105194 0.0567465 -0.110509)
(0.0420918 0.042773 -0.0913727)
(-0.267709 0.0206708 0.000571481)
(0.359801 0.000657586 -0.0283463)
(0.210796 0.0017524 0.101806)
(-0.0562746 0.00733859 -0.0559659)
(-0.168484 0.0285834 -0.0897778)
(0.194895 -0.0170179 0.0850695)
(0.13269 0.0256406 -0.0773344)
(0.0601219 0.0305091 -0.10494)
(-0.260895 0.0329107 -0.00459647)
(0.36077 0.0246241 0.01591)
(0.227422 -0.0225878 0.100066)
(-0.0603728 -0.0246754 -0.0654737)
(-0.16697 -0.0182989 -0.0993677)
(0.182657 -0.0213923 0.0889299)
(0.0876194 0.0182135 -0.0590106)
(0.0656337 0.0123894 -0.103769)
(-0.240585 0.018862 0.00227318)
(0.362224 0.0333256 -0.0112667)
(0.225015 -0.0552399 0.0874729)
(-0.0592979 -0.0517922 -0.062172)
(-0.158584 -0.063205 -0.089917)
(0.203575 -0.0112003 0.0869181)
(0.123872 -0.0115031 -0.0639695)
(0.0727289 0.00692975 -0.0993106)
(-0.251913 -0.000501451 -0.00523777)
(0.369003 0.0505855 0.0139988)
(0.176176 -0.0430189 0.127503)
(0.0177907 -0.0663748 -0.0517317)
(-0.121038 -0.0723976 -0.0852619)
(0.1856 -0.0117899 0.0422148)
(0.258658 0.00817341 -0.113669)
(0.0807341 -0.00831407 -0.0813017)
(0.0493934 -0.0893068 -0.0475601)
(-0.0981774 -0.0592833 -0.0685487)
(0.187432 -0.0186879 -0.00200394)
(-0.0506597 0.0272079 -0.118715)
(0.0654494 -0.124678 -0.172756)
(0.142639 -0.100091 -0.059705)
(0.814937 -0.0250263 0.0351628)
(-0.00468511 -0.443531 -0.195176)
(0.0137769 -0.398883 -0.199682)
(-0.0280272 0.243901 -0.139299)
(0.052855 0.0400282 -0.253982)
(-0.384249 0.00317356 0.209782)
(0.125224 0.065764 0.00230001)
(0.169913 0.0155627 -0.176877)
(-0.0389627 0.0571008 -0.109966)
(0.112931 0.0344077 -0.252712)
(0.000181765 0.0849401 -0.249615)
(0.163542 0.0254418 -0.0842807)
(0.181938 0.0145389 -0.122395)
(0.0720392 0.167968 -0.212481)
(0.0404716 0.163003 -0.226164)
(0.124575 0.0365775 -0.246943)
(-0.286077 0.0252441 0.249727)
(0.169969 -0.0285288 -0.0180162)
(0.159107 0.0111646 -0.171238)
(-0.106147 0.141706 -0.154297)
(-0.0186575 -0.0427542 -0.25653)
(0.122192 0.00194086 -0.11737)
(0.282554 -0.00107268 0.0223765)
(0.289553 -0.0255239 -0.136781)
(0.158818 0.00506078 -0.148996)
(0.0541583 0.0330158 -0.258767)
(0.108239 0.0246715 -0.261572)
(-0.332344 0.0188099 0.221656)
(0.194301 -0.00561363 -0.0115018)
(0.118055 -0.0258685 -0.178839)
(-0.149734 -0.015884 -0.151284)
(0.0972957 -0.0136982 -0.22129)
(0.143787 -0.0110272 -0.0687941)
(0.321544 -0.00823874 0.0183983)
(0.350069 0.00557484 -0.103162)
(0.182134 0.00530402 -0.140699)
(0.058373 0.0148609 -0.23369)
(0.116427 0.0167147 -0.260471)
(-0.280922 0.0191495 0.229194)
(0.184004 -0.0452386 -0.0271629)
(0.147727 -0.0565796 -0.174801)
(-0.0996732 -0.168142 -0.151878)
(-0.00185718 -0.0132643 -0.249868)
(0.135213 -0.00975926 -0.1016)
(0.276361 -0.0272648 -0.01812)
(0.296918 0.00741181 -0.0848463)
(0.167763 0.00853826 -0.15491)
(0.0330672 0.0162525 -0.271278)
(0.117719 0.0164863 -0.256345)
(-0.313877 0.0140295 0.223348)
(0.138097 -0.0497045 -0.010964)
(0.196842 -0.0609047 -0.176942)
(-0.0264006 -0.080063 -0.117434)
(0.135635 -0.0389385 -0.254217)
(0.104549 -0.0884347 -0.180022)
(0.193098 -0.0227261 -0.0707329)
(0.205003 -0.0058176 -0.119588)
(0.0523625 -0.147367 -0.277469)
(0.053163 -0.0782229 -0.202065)
(0.15471 0.0050714 -0.211426)
(-0.266422 0.0205203 0.226547)
(0.11334 -0.0914237 -0.0349668)
(0.244875 -0.0702395 -0.176374)
(0.0509128 -0.0492008 -0.136972)
(0.118683 -0.0810453 -0.273513)
(0.0576133 -0.071046 -0.275798)
(0.10624 -0.110452 -0.266721)
(0.150726 -0.0959947 -0.206643)
(0.167882 -0.0454537 -0.139172)
(-0.196378 -0.170729 -0.298512)
(0.111903 -0.161915 -0.276555)
(0.0580283 -0.114054 -0.236103)
(0.0742706 -0.0773671 -0.239236)
(0.0185297 -0.286305 -0.359734)
(0.0166852 -0.264788 -0.361465)
(0.128229 0.121594 -0.13563)
(0.0279674 0.0742664 -0.316749)
(0.087522 0.0774346 -0.264062)
(-0.013851 0.0767437 -0.120618)
(0.187434 0.18016 -0.15139)
(-0.0789195 0.0164567 -0.153642)
(-0.110087 0.0151021 0.202314)
(0.350689 -0.00267872 -0.00518793)
(-0.306465 -0.0273718 -0.19934)
(0.544107 0.102956 -0.00133801)
(0.0999017 0.0609066 -0.163655)
(0.101084 0.023345 -0.224042)
(0.0285374 0.02968 -0.248495)
(0.0945337 0.0341729 -0.202492)
(0.0294223 0.0539407 -0.284041)
(0.145694 0.0268419 -0.115459)
(-0.0383262 -0.0018385 -0.147093)
(-0.0996932 0.0324129 0.201437)
(0.381601 -0.0157959 0.00800963)
(-0.264853 -0.0106455 -0.193155)
(0.483678 0.0294376 0.00992716)
(0.124199 0.0199139 -0.134542)
(0.0965284 0.0111174 -0.189409)
(0.0412449 0.0119957 -0.223597)
(0.100631 0.0151034 -0.174176)
(0.0591309 0.016906 -0.254887)
(0.11029 0.0252435 -0.0302859)
(-0.0108652 0.0269311 -0.148193)
(-0.106465 0.00963219 0.194944)
(0.376584 -0.0319933 -0.00394903)
(-0.246925 -0.0215865 -0.199589)
(0.477886 -0.0130645 0.0127054)
(0.136816 -0.00836996 -0.130886)
(0.105085 -0.00744822 -0.181743)
(0.0503254 -0.0013419 -0.212274)
(0.104884 -0.00100606 -0.170047)
(0.0650983 0.0060217 -0.247797)
(0.1085 0.00913685 -0.0310607)
(-0.0110246 0.0172429 -0.13551)
(-0.0943815 0.0216572 0.197111)
(0.389067 -0.0535898 -0.0101086)
(-0.26193 -0.025769 -0.189507)
(0.485744 -0.0478572 0.00586594)
(0.132757 -0.0267175 -0.135266)
(0.106689 -0.0221338 -0.190935)
(0.05476 -0.0147225 -0.216496)
(0.109942 -0.0134833 -0.180257)
(0.0579713 -0.0201352 -0.258205)
(0.128881 0.0141081 -0.0323024)
(-0.00972773 0.047407 -0.144875)
(-0.0890723 -0.00240669 0.189607)
(0.361683 -0.057034 -0.0085832)
(-0.285579 -0.0317234 -0.185738)
(0.53526 -0.0682143 -0.0115835)
(0.123809 -0.0500568 -0.160118)
(0.124873 -0.0208976 -0.226266)
(0.0628814 -0.0235066 -0.243508)
(0.114015 -0.0171372 -0.21186)
(0.0608037 -0.0447772 -0.257294)
(0.16074 -0.0497694 -0.131727)
(-0.0468643 0.0238848 -0.118989)
(-0.0838997 0.0163643 0.191344)
(0.372306 -0.044736 -0.0177864)
(-0.272596 -0.1736 -0.174595)
(0.60129 -0.101341 -0.0745981)
(0.0261904 -0.0136725 -0.188468)
(0.145538 -0.0767824 -0.150152)
(0.0739787 -0.0646777 -0.282263)
(0.102113 -0.0573161 -0.254775)
(-0.0850666 0.136767 0.175702)
(0.356796 -0.0325672 -0.195939)
(0.228615 -0.104595 -0.165491)
(0.105661 -0.0706429 -0.193091)
(0.115481 -0.0153571 -0.167468)
(0.084441 -0.0146067 0.0935983)
(0.0446844 -0.00591822 -0.085871)
(0.0391443 -0.0120099 0.0865163)
(0.0907567 -0.000284921 -0.111549)
(-0.021964 0.000897639 0.150656)
(0.112005 0.00849697 0.0153535)
(0.289367 0.00705445 0.0841161)
(-0.159077 -0.0243018 -0.160787)
(0.132827 -0.0221627 0.132392)
(-0.0286845 -0.0114715 -0.127093)
(0.0865409 -0.0166794 0.0894966)
(0.0476404 0.00169897 -0.0862037)
(0.0439488 -0.006712 0.0890688)
(0.0898619 0.00580772 -0.110558)
(-0.0146045 0.00357534 0.169063)
(0.106584 0.0195625 0.0262211)
(0.285008 -0.0279087 0.0686507)
(-0.14805 -0.0219204 -0.166205)
(0.135182 -0.0271807 0.119554)
(-0.0191606 -0.0113496 -0.117973)
(0.0911621 -0.0136518 0.0804839)
(0.0537713 0.00106308 -0.0788654)
(0.0478596 -0.00379926 0.086376)
(0.0963215 0.0106446 -0.0954416)
(-0.0214129 0.00547725 0.172269)
(0.120724 0.0172261 0.0245535)
(0.300254 -0.0257771 0.0678948)
(-0.153877 -0.018896 -0.157878)
(0.139718 -0.0219602 0.11934)
(-0.0179414 -0.00860982 -0.120133)
(0.0970065 -0.0139786 0.0781213)
(0.0571237 0.00166258 -0.077109)
(0.054412 -0.00476692 0.0828654)
(0.0973013 0.0116365 -0.0905222)
(-0.00944604 0.00352819 0.166488)
(0.115757 0.0250212 0.0255615)
(0.299411 -0.0499395 0.0652669)
(-0.14367 -0.0121445 -0.162103)
(0.145182 -0.024231 0.11256)
(-0.010789 -0.00666736 -0.113597)
(0.100704 -0.0140441 0.0753848)
(0.0624457 0.00330912 -0.0756203)
(0.056669 -0.00362242 0.0781135)
(0.106121 0.0173515 -0.10022)
(-0.00699215 0.00412866 0.159645)
(0.131228 0.0283085 0.0302697)
(0.299941 -0.057767 0.0753813)
(-0.131498 -0.00952726 -0.152268)
(0.146795 -0.0273283 0.106411)
(-0.00462514 -0.00336124 -0.115014)
(0.107185 -0.0144083 0.0733089)
(0.0662473 0.00622876 -0.0723098)
(0.062728 -0.00292155 0.0682429)
(0.109125 0.0221905 -0.0899815)
(0.0129133 0.00484887 0.130311)
(0.123449 0.0316114 0.0200783)
(0.298978 -0.0813603 0.0725022)
(-0.127139 -0.00018338 -0.162789)
(0.155852 -0.0235243 0.0523087)
(0.00720906 0.00750004 -0.105463)
(0.113041 -0.0114077 0.0784124)
(0.0728926 0.0131281 -0.070972)
(0.06809 0.00400423 0.0692019)
(0.0354594 0.0123634 -0.101926)
(0.108394 -0.018442 0.0744878)
(0.0851862 0.0235521 -0.0622857)
(0.496325 0.0197804 0.135624)
(0.493307 0.00645784 0.176508)
(0.19957 0.0268214 -0.101678)
(-0.0363501 -0.0775759 0.37131)
(0.0342889 0.0669498 -0.413017)
(0.251399 -0.0067805 -0.0409499)
(0.667002 -0.00174368 -0.0750869)
(0.0488469 -0.00604179 -0.242237)
(-0.0398412 -0.0277996 0.317673)
(0.1407 0.0762569 -0.204422)
(0.648567 0.00344594 -0.0421801)
(0.434304 0.00518911 -0.000131899)
(0.14083 0.0571741 -0.205612)
(0.0356896 -0.10749 0.372885)
(0.0329406 0.0481369 -0.462848)
(0.477238 0.0221404 0.136278)
(0.415586 0.0264514 0.0292572)
(0.440804 -0.0243804 0.049248)
(-0.0656162 -0.0209764 -0.443708)
(0.06312 -0.0117952 0.363204)
(0.0397156 -0.035284 -0.429277)
(0.480709 0.00817802 0.187322)
(0.224684 0.0337941 -0.121478)
(0.358806 -0.0274158 0.21607)
(0.0300305 0.0148529 -0.112586)
(0.0589703 0.0481977 -0.437302)
(0.0345204 -0.0400743 0.375827)
(0.0747645 0.00507499 -0.453312)
(0.231322 -0.0144407 -0.0158366)
(0.654763 0.00234231 -0.059716)
(0.21481 -0.0187851 0.0717687)
(0.575171 -0.0105986 -0.0662897)
(0.102455 0.0803321 -0.381924)
(-0.0104236 -0.0420352 0.315275)
(0.0818021 0.00889475 -0.361656)
(0.64095 0.00307287 -0.0322104)
(0.450838 -0.000759259 0.00462591)
(0.567542 -0.0119134 -0.0385615)
(0.579767 0.00703611 0.00965384)
(0.0445913 0.0235879 -0.420623)
(0.0992522 0.00389886 0.400298)
(0.041899 0.00873478 -0.435252)
(0.42817 0.0204637 0.0256684)
(0.420088 -0.00576255 0.0613784)
(0.570152 0.00660084 0.0616933)
(0.358116 -0.00880494 0.0376212)
(0.0690226 -0.00959292 -0.44902)
(0.0931139 0.00016361 0.390756)
(0.0459743 0.00307037 -0.457983)
(0.333913 -0.0140411 0.227564)
(0.0386741 0.00803854 -0.110476)
(0.288003 0.017034 0.249791)
(0.04283 0.00801524 -0.104489)
(0.07542 0.00414677 -0.457481)
(0.0353735 0.0379478 0.387893)
(0.0913798 -0.0108812 -0.450606)
(0.214439 -0.0142759 0.0783729)
(0.588597 -0.00769401 -0.0648924)
(0.218689 -0.000806723 0.0378688)
(0.573601 -0.0322365 -0.0738362)
(0.0936094 0.00361232 -0.406131)
(0.0215275 0.0267241 0.350884)
(0.0929843 -0.0391802 -0.389489)
(0.581137 -0.00924448 -0.0331277)
(0.580548 0.00557943 0.0102579)
(0.568818 -0.0245049 -0.0437965)
(0.503599 -0.0184991 0.021748)
(0.0359882 0.00703986 -0.43654)
(0.0975256 0.0228296 0.360217)
(0.0452938 -0.00249022 -0.444029)
(0.570998 0.00561916 0.0610401)
(0.338209 -0.00201759 0.037102)
(0.498206 0.00389361 0.0484847)
(0.364163 -0.0191675 0.0522478)
(0.0536488 0.0069636 -0.460899)
(0.0861781 -0.0107218 0.394346)
(0.0522717 0.00231824 -0.464367)
(0.2721 0.000942839 0.255393)
(0.0471371 0.0102487 -0.104834)
(0.294993 0.0108424 0.255857)
(0.0504389 0.0108833 -0.0998867)
(0.0863063 -0.00938507 -0.380174)
(-0.00349707 0.0130634 0.431602)
(-0.000957743 -0.113647 -0.451518)
(0.23912 -0.0136372 -0.0320706)
(0.61928 -0.0322472 -0.0768924)
(0.366715 -0.012923 -0.0861813)
(0.656097 -4.45551e-05 -0.0362415)
(0.101689 -0.0554504 -0.37746)
(0.112666 0.011793 0.332678)
(0.186149 -0.0326902 -0.155534)
(0.603704 -0.0230264 -0.0515934)
(0.502298 -0.022547 0.0239371)
(0.0417794 -2.25867e-05 -0.379546)
(0.034337 0.0487877 0.371106)
(0.0752406 -0.0977741 -0.435376)
(0.497022 -0.00222317 0.0451104)
(0.39745 0.00472081 0.0473602)
(0.482595 0.0103351 0.108884)
(0.0753327 0.0126767 -0.437388)
(0.0623363 0.0163051 0.454392)
(0.0786992 0.033807 -0.444553)
(0.31277 0.000565372 0.243405)
(0.0530274 0.011014 -0.0942912)
(0.473946 0.0311766 0.19089)
(0.0576226 0.0232816 -0.115946)
(0.037903 -0.125216 -0.207432)
(0.0801563 0.0330906 0.328034)
(0.0682433 -0.0454385 -0.170835)
(0.390455 -0.0187154 -0.108187)
(0.492 -0.0512252 -0.223041)
(0.107284 0.012338 -0.161976)
(0.0902066 -0.0317265 0.299131)
(0.104687 -0.008191 -0.20862)
(0.127757 -0.0878423 -0.237139)
(0.0970834 0.0134627 0.282536)
(0.135526 -0.0139676 -0.185385)
(0.488789 0.00507313 0.106659)
(0.575267 -0.00639625 0.132886)
(0.0231212 0.0850043 -0.427888)
(0.0108782 0.0628631 0.396552)
(0.0702607 -0.00957062 -0.427659)
(0.483624 0.0230347 0.177992)
(0.120451 -0.00534596 -0.13086)
(0.627242 0.00787543 0.173925)
(0.0788624 0.0291711 -0.120578)
(0.0765563 -0.0311065 -0.173175)
(0.0788109 -0.108276 0.291047)
(0.0834646 0.0167368 -0.197646)
(0.532589 -0.047981 -0.243441)
(0.435383 -0.000859345 -0.237147)
(0.111261 -0.0136603 -0.20288)
(0.0926921 -0.0545455 0.284641)
(0.121346 0.0082004 -0.215824)
(0.123911 0.000219515 -0.20637)
(0.0988414 -0.0269575 0.250062)
(0.0838856 0.0546337 -0.180108)
(0.58083 0.010957 0.118918)
(0.57047 -0.0632492 0.2107)
(-0.00837398 -0.0742358 0.1908)
(0.61327 0.0198095 0.16474)
(0.565107 -0.0630471 0.226986)
(-0.0376331 -0.0211581 -0.514513)
(-0.0742182 -0.0737815 0.442865)
(0.0685346 -0.0132822 -0.470149)
(0.0205307 0.0562753 0.241945)
(0.258772 0.0349645 -0.195897)
(0.0866693 -0.145555 0.248659)
(0.0248345 -0.0590067 -0.238986)
(0.0915312 0.0340211 -0.197254)
(0.0354927 -0.219218 0.380679)
(0.0244646 0.129488 -0.526979)
(0.360123 0.00521359 -0.178347)
(0.106039 -0.124383 0.125308)
(0.183821 0.108918 -0.250535)
(0.121414 0.0114624 -0.22779)
(0.0440792 -0.274388 0.248326)
(0.0992192 0.199484 -0.234695)
(0.189887 -0.159506 -0.0100162)
(0.248099 0.141205 -0.112131)
(0.1517 0.0880085 -0.208555)
(0.016409 -0.206868 0.231438)
(0.138783 0.176985 -0.339491)
(0.557444 -0.0604652 0.207935)
(0.219369 -0.107579 0.0682542)
(0.0544091 -0.0254609 -0.506487)
(0.111105 0.249165 -0.494303)
(0.0226901 -0.19393 0.304616)
(0.104889 -0.158048 -0.129252)
(0.0916683 0.0954896 -0.268209)
(0.511624 0.0369251 0.112765)
(0.553908 0.02782 0.153758)
(0.167609 0.0171412 -0.0402941)
(0.259199 0.105268 0.222596)
(0.078699 -0.0602073 0.170744)
(0.107057 0.0249101 0.0496309)
(0.0116133 -0.00738699 0.187859)
(0.340381 0.0055661 -0.153119)
(0.19526 -0.000975856 -0.125519)
(0.389302 0.00641857 -0.14514)
(0.491704 0.0366704 0.116493)
(0.458765 -0.0298867 0.0944654)
(0.191178 0.0341083 -0.0501161)
(0.444958 -0.028546 0.196535)
(0.0946918 0.0104829 -0.113715)
(0.249542 0.0331691 0.228259)
(0.155097 -0.00867851 0.199318)
(0.114919 0.071195 -0.298133)
(0.0505358 0.00213839 0.128985)
(0.120685 0.0134892 -0.316087)
(0.10279 0.0343885 0.0397525)
(0.128783 0.0305102 -0.0132525)
(0.0459826 0.00687971 0.0398537)
(0.10811 0.0130605 -0.0179042)
(0.330138 -0.0016278 -0.148105)
(0.0108461 -0.0123725 0.191306)
(0.257652 -0.00561897 -0.112126)
(0.194555 -0.00243679 -0.11703)
(0.18435 -0.0170034 -0.111149)
(0.287572 -0.0106259 -0.0318607)
(0.582878 -0.00936668 -0.0613007)
(0.56486 -0.0147278 -0.0433022)
(0.429978 0.00862289 0.012763)
(0.442491 -0.0161309 0.109315)
(0.428217 0.008767 0.0373544)
(0.410761 -0.0133446 0.133006)
(0.0957124 0.00950301 -0.114648)
(0.40479 -0.000829359 0.225067)
(0.0929853 0.00709281 -0.112801)
(0.158206 -0.0188577 0.196007)
(0.133652 0.00609899 0.177359)
(0.102199 0.0152259 -0.320509)
(0.0494579 0.0104785 0.113975)
(0.108911 0.010718 -0.31385)
(0.0525683 0.011422 0.0386807)
(0.111303 0.0141862 -0.0208739)
(0.0360632 0.00361146 0.0679307)
(0.11691 0.0137744 -0.0219714)
(0.253679 -0.0123018 -0.111138)
(0.0152116 -0.0186448 0.185568)
(0.283966 -0.00567993 -0.154198)
(0.185363 -0.016282 -0.110496)
(0.187455 -0.0239315 -0.113232)
(0.606763 -0.00505862 -0.0643036)
(0.309463 -0.000754015 -0.0856743)
(0.614362 -0.0175249 -0.0608162)
(0.428574 0.00676586 0.0130528)
(0.595495 -0.00180079 -0.0546991)
(0.497032 -0.0174425 0.0289783)
(0.402788 -0.0113765 0.13294)
(0.491214 -0.00476306 0.041808)
(0.393302 -0.00154769 0.116918)
(0.09632 0.00927391 -0.113314)
(0.387809 0.0112655 0.224568)
(0.0966072 0.00786001 -0.108106)
(0.133634 0.00758227 0.17642)
(0.170765 0.0440887 0.189006)
(0.109233 0.0123035 -0.314722)
(0.0522351 0.0143515 0.111695)
(0.109251 0.00706775 -0.315375)
(0.0376817 0.0179427 0.0684896)
(0.118429 0.0146746 -0.0225589)
(0.0710899 0.00954601 0.0482803)
(0.117672 0.0122786 -0.0219106)
(0.314131 -0.0191939 -0.169994)
(0.017435 -0.0239351 0.177964)
(0.456018 -0.0293774 -0.216809)
(0.190383 -0.0252511 -0.115869)
(0.20956 -0.0429837 -0.145484)
(0.628567 -0.0332385 -0.053374)
(0.508661 -0.03106 -0.203326)
(0.412654 0.00537275 0.117524)
(0.499214 -0.00896178 0.14164)
(0.102975 0.00540181 -0.107182)
(0.515782 0.0117759 0.178342)
(0.135571 0.0112064 -0.0892855)
(0.167739 0.0240408 0.192415)
(0.198977 0.0355614 0.237037)
(0.112992 0.00882681 -0.307273)
(0.0704396 0.0597081 0.103465)
(0.106275 -0.0118859 -0.310633)
(0.0702888 0.0177197 0.0464528)
(0.12303 0.0128835 -0.0199744)
(0.0757352 0.0060123 0.0536302)
(0.124303 0.00858283 -0.0172613)
(0.459963 -0.0352587 -0.22108)
(0.037292 -0.0218293 0.228082)
(0.523645 -0.0425107 -0.273256)
(0.206828 -0.0415471 -0.152032)
(0.174155 0.0287047 -0.108892)
(0.532458 -0.0473691 -0.28334)
(0.503685 -0.0155016 0.141447)
(0.1747 0.00780738 -0.0991873)
(0.178108 0.0125228 -0.0730254)
(0.200293 0.00965704 0.242865)
(0.123749 -0.0168295 -0.301774)
(0.162222 0.0228902 0.124487)
(0.19978 -0.0277405 -0.139756)
(0.0777622 0.00984438 0.0605073)
(0.125545 0.00852193 -0.0127653)
(0.529543 -0.045641 -0.281722)
(-0.0343317 -0.00760325 0.100515)
(0.474288 0.038606 -0.31256)
(0.156575 0.0243672 -0.0935756)
(-0.0220894 -0.0179296 -0.0052798)
(0.535001 0.0131155 -0.29217)
(0.594088 -0.0496795 0.219325)
(0.0280868 -0.0597255 -0.144523)
(0.0718166 -0.0824028 -0.169012)
(0.147095 0.10594 -0.0297641)
(0.0041799 -0.167488 0.00835164)
(0.463836 0.0348449 -0.289685)
(0.124577 -0.148926 0.137795)
(0.161461 -0.0882627 -0.135585)
(-0.0604549 -0.0262599 -0.026113)
(0.193061 -0.110793 0.0695904)
(0.276483 0.0244108 -0.247346)
(0.274145 -0.093781 -0.0830543)
(0.331807 0.0568246 -0.0924532)
(0.299942 -0.0573619 0.0295263)
(0.0280581 -0.123134 -0.213479)
(0.154049 -0.0994316 -0.0521998)
(0.193143 0.0441699 -0.306808)
(0.739191 -0.155351 -0.0757248)
(0.223298 0.0511664 -0.293311)
(0.156921 -0.247413 0.0244269)
(0.219514 0.177584 -0.222679)
(1.23922 0.0802297 -0.183399)
(0.562991 -0.162504 -0.0702489)
(0.218108 0.227428 -0.00895006)
(0.254849 0.090387 -0.159027)
(0.122854 -0.345048 0.105334)
(0.0850336 0.453741 -0.118282)
(1.19698 0.0697387 -0.142407)
(0.776456 -0.0594272 0.0432064)
(0.186692 -0.267533 0.0874638)
(0.23058 0.218472 -0.0633121)
(0.142832 0.0519632 -0.287531)
(0.574165 -0.0301569 -0.0390592)
(0.0150995 0.0158339 -0.045727)
(0.115544 -0.0326742 0.0425233)
(0.332325 0.152833 0.004901)
(0.17872 0.0838051 -0.13248)