/*--------------------------------*- C++ -*----------------------------------*\
  =========                 |
  \\      /  F ield         | OpenFOAM: The Open Source CFD Toolbox
   \\    /   O peration     | Website:  https://openfoam.org
    \\  /    A nd           | Version:  10
     \\/     M anipulation  |
\*---------------------------------------------------------------------------*/
FoamFile
{
    format      ascii;
    class       volVectorField;
    location    "0.1";
    object      wallShearStress;
}
// * * * * * * * * * * * * * * * * * * * * * * * * * * * * * * * * * * * * * //

dimensions      [0 2 -2 0 0 0 0];

internalField   uniform (0 0 0);

boundaryField
{
    inlet
    {
        type            calculated;
        value           nonuniform List<vector> 0();
    }
    outlet
    {
        type            calculated;
        value           nonuniform List<vector> 0();
    }
    walls
    {
        type            calculated;
        value           nonuniform List<vector> 0();
    }
    drone
    {
        type            calculated;
        value           nonuniform List<vector> 
23835
(
(-0.000629548 0.000204668 0.00264732)
(-0.00461312 -0.000530228 0.00375143)
(-0.00119112 0.000646332 0.00383201)
(-0.00115447 -0.0011468 9.084e-05)
(-0.00162913 -0.00139661 -0.00146357)
(0.000406317 -0.000285218 0.000244875)
(0.000453971 -0.000273978 0.000572984)
(-0.00100212 0.00170744 -0.001488)
(-0.0127251 -0.000361947 0.00459833)
(0.000413418 -0.00104362 -0.00291401)
(-0.00381053 0.000326343 0.00178905)
(-0.00182076 -0.000622238 0.0029731)
(-0.00689051 -0.0029262 -0.00613134)
(-0.00528812 -0.00261097 -0.00385708)
(-0.0122523 -0.00936213 0.0029612)
(-0.0116524 -0.00754523 0.00164224)
(-0.0138962 -0.00841622 0.000887497)
(-0.00792346 -0.00440546 0.00185411)
(-0.000876047 -0.000152979 0.0020388)
(-0.000938027 7.91973e-05 0.00264156)
(-0.00182439 -0.000604822 0.00236255)
(-0.0018538 0.000359424 0.00383942)
(0.000538649 -0.000310499 0.000411173)
(-0.00297792 -0.00235527 -0.00263948)
(-0.0025377 -0.00211727 -0.00664459)
(-0.00137574 -0.00130743 -0.00424892)
(0.000544018 -0.000323647 0.000396279)
(0.000760694 -0.000292663 -0.00211345)
(0.000512053 -0.000344215 0.000575743)
(-0.00314688 -0.00288943 0.000931294)
(-0.00698544 -0.00276263 0.000621346)
(-0.00200487 -8.21311e-05 -0.000658005)
(-0.00214946 8.91909e-05 0.000151791)
(-0.00125076 -2.07515e-05 -0.000137776)
(-0.00242224 0.000100155 0.000246001)
(-0.00490207 -4.8092e-05 -0.000340478)
(-0.00219107 0.000213596 0.0011472)
(-0.00250089 2.35043e-05 0.000372374)
(-0.00243326 -2.0243e-06 0.000183829)
(-0.001298 -1.3448e-05 5.4835e-05)
(-0.0011863 -7.95463e-05 -9.09062e-05)
(-0.00234256 1.93783e-05 0.000269775)
(-0.00138145 5.64903e-06 3.01158e-05)
(-0.00652742 9.73725e-07 0.000380458)
(-0.00147773 5.81451e-05 -4.8361e-05)
(-0.00310698 2.1853e-05 -0.000785404)
(-0.00249047 -3.33891e-05 -0.000731826)
(-0.00526013 -9.64327e-05 -0.00111595)
(-0.00213287 0.000247916 -0.000796174)
(-0.004442 -0.000322525 -0.00101884)
(-0.00220465 -0.000118318 -0.000665145)
(-0.00203255 -0.000141803 -0.000532109)
(-0.00210199 3.09456e-05 0.000291488)
(-0.00200889 5.64704e-05 0.000177932)
(-0.00128356 -2.50707e-05 -8.10182e-06)
(-0.00125911 -2.42802e-05 -0.00013911)
(-0.00223147 2.06678e-05 0.000312994)
(-0.00236831 6.33353e-05 0.000308639)
(-0.00127498 -2.07251e-05 -9.87929e-06)
(-0.0022665 -1.40656e-06 0.000255678)
(-0.00475624 0.000174502 -0.000264549)
(-0.00218171 2.16743e-05 -0.000225883)
(-0.00250597 0.000155935 0.000274318)
(-0.00143807 2.43234e-05 -0.00046643)
(-0.00194507 0.00017575 0.0010321)
(-0.0015264 2.48392e-05 -0.000489625)
(-0.00425768 0.000365468 -0.00161097)
(-0.00439553 0.000330582 -0.000229865)
(-0.00300302 -8.95242e-05 0.000608157)
(-0.00208738 -3.91237e-05 0.000256587)
(-0.00242902 -0.000133035 -0.000293307)
(-0.00194827 1.01941e-05 -0.000135522)
(-0.00197905 -1.41418e-05 -0.00021794)
(-0.00209852 3.71644e-05 0.000201194)
(-0.00197891 2.76781e-05 0.000161808)
(-0.00215172 1.15895e-05 0.000185645)
(-0.00130673 2.64316e-05 -0.000101054)
(-0.00204397 -1.33849e-05 -0.000232773)
(-0.00211677 2.76691e-05 -0.000232042)
(-0.00319595 0.000166166 -0.000551352)
(-0.00387444 -7.15869e-05 0.0008142)
(-0.00232157 6.69134e-05 -0.000680996)
(-0.00243668 0.000103221 0.0011919)
(0.000190533 3.70981e-05 -0.000152842)
(0.000194201 -0.000332301 -3.37744e-05)
(-0.000615095 1.59094e-05 -0.00100418)
(-0.000404454 0.000121306 -0.00125614)
(-0.00272573 0.000292544 -0.00138945)
(-0.000284142 0.000116828 -0.0011754)
(-7.78091e-05 7.07837e-05 -0.00106437)
(-0.00141049 -5.45124e-05 0.00100622)
(-0.00103861 -0.000140427 0.000700725)
(-0.00049575 0.000229317 -0.00109834)
(5.44845e-05 -0.000157242 -0.00109342)
(-0.00163207 -5.44236e-06 0.00117223)
(-0.00294542 -0.000153013 0.00221754)
(-0.000120908 -4.57192e-05 -0.00110241)
(2.11233e-05 -8.12515e-05 -0.000988333)
(-0.00126865 -0.000166895 0.000914256)
(-0.00038361 -0.000181421 -0.00129378)
(-0.000654754 2.46029e-05 -0.000939461)
(-0.00291498 -0.000118204 -0.00126695)
(-0.00300007 1.7001e-05 -0.000687141)
(-0.00599519 0.000783834 -0.00043849)
(-0.00225784 0.000100341 0.000314287)
(-0.00330737 0.000201627 0.000296929)
(-0.00391638 -0.00102391 -0.00246659)
(-0.00302296 -2.11082e-05 0.000214486)
(-0.00272821 1.24604e-05 0.000197049)
(-0.0026268 5.66594e-05 0.000182677)
(-0.00186259 0.000123648 0.000354683)
(-0.0016361 0.00012197 0.000220795)
(-0.00206376 -1.99425e-05 -0.000227269)
(-0.00230148 2.08306e-05 -0.000220536)
(-0.00187419 -6.37484e-07 -0.000248328)
(-0.00171109 0.000179128 0.000233224)
(-0.00218908 -0.000138638 9.95215e-06)
(-0.00206559 -0.000113629 7.53097e-05)
(-0.00249429 0.000131123 -1.23817e-05)
(-0.00250047 9.9549e-05 -0.000137574)
(-0.00259473 9.53535e-05 0.00034997)
(-0.00267012 0.000157348 0.000284003)
(-0.00257121 2.17752e-05 -6.16742e-05)
(-0.00171191 3.95039e-05 4.12966e-05)
(-0.00170049 -4.17878e-05 0.000117877)
(-0.00259724 0.000121945 0.000138589)
(-0.00189381 2.34602e-05 0.000178582)
(-0.00176496 7.33227e-05 -2.68275e-06)
(-0.0018346 1.36358e-05 0.000114662)
(-0.00167999 0.000141765 -0.000138667)
(-0.00255487 4.58083e-05 -0.000243569)
(-0.00215148 5.03988e-06 -0.000269144)
(-0.00241621 8.26958e-05 0.000613019)
(-0.0035687 9.55748e-05 0.000675831)
(-0.00341896 6.69689e-05 0.000664664)
(-0.00627993 9.63259e-05 0.00126097)
(-0.00212044 5.00414e-05 -0.000333846)
(-0.00157464 -2.5117e-05 -0.000435931)
(-0.00323354 -5.98886e-05 0.000654399)
(-0.00260926 -0.000138646 0.000625345)
(-0.00267123 -0.000115727 0.00060286)
(-0.00235548 -0.000155003 -0.000376293)
(-0.00196879 -8.43361e-05 -0.000353167)
(-0.000655334 9.75404e-05 0.00162442)
(-0.00059786 3.28888e-05 0.00162184)
(-0.00221683 -9.07387e-05 0.00033226)
(-0.00224081 -1.6534e-05 0.000337338)
(-0.00207003 -2.37709e-05 -5.08051e-05)
(-0.0021243 5.60996e-05 0.000226378)
(-0.00207811 3.26613e-05 0.000207626)
(-0.00198779 -3.38766e-05 -3.04241e-05)
(-0.00198541 1.91276e-05 0.000143393)
(-0.00208079 -6.3252e-05 -0.000325011)
(-0.00178435 -2.02453e-05 -0.000120025)
(-0.00201038 -8.94029e-06 -0.000226835)
(-0.000545838 0.000158567 0.00164966)
(-0.000634133 0.000109564 0.00162868)
(-0.00207583 3.80296e-05 0.000288421)
(-0.00208421 4.89158e-05 0.000285)
(-0.00199724 1.81616e-05 0.000141076)
(-0.00134541 3.90251e-05 2.37049e-05)
(-0.00208194 9.06239e-06 0.000130469)
(-0.00199245 3.49379e-05 0.000155652)
(-0.00218925 1.53834e-05 0.000169625)
(-0.00148378 8.06995e-05 3.1348e-05)
(-0.00215847 6.07139e-06 0.000117278)
(-0.00139951 6.0047e-05 -7.89662e-05)
(-0.00199385 3.83197e-05 -0.000214545)
(-0.00203082 -5.31521e-06 -0.000233725)
(-0.00171243 3.36979e-05 -0.000298589)
(-0.000520423 0.000116335 0.00167232)
(-0.00243195 0.00010827 0.000656029)
(-0.00338203 2.75638e-07 0.000696062)
(-0.00254743 5.00687e-05 0.000682155)
(-0.00644842 -0.000104295 0.00131865)
(-0.00261865 0.000113469 0.000708544)
(-0.00181696 3.39619e-05 -0.000285418)
(-0.00190987 7.34551e-05 -0.000339928)
(-0.00517238 0.000420539 -0.00108953)
(-0.00211187 0.000114345 -0.000441663)
(-0.000420919 8.59445e-05 0.000704841)
(-0.000492566 0.000232569 0.00131481)
(-0.000501918 0.000242522 0.00135155)
(-0.000441678 8.36677e-05 0.00126085)
(-0.00461561 0.000160005 -0.00102326)
(-0.000441268 -0.000183665 0.000527215)
(-0.00171366 8.02931e-05 0.000774716)
(-0.00046226 4.15214e-05 0.000707737)
(-0.00179297 5.01205e-05 0.000767114)
(-0.00036679 8.72069e-05 -0.000273581)
(-0.00035376 -0.000251476 0.000498874)
(-0.000519785 -4.08351e-05 0.00122852)
(-0.000971103 -3.97036e-05 -2.35751e-05)
(-0.000338688 -6.42004e-05 0.000420239)
(-0.0025251 5.95717e-05 0.00118821)
(-0.000468235 0.000159341 -0.000842914)
(-0.000477531 7.93184e-05 -0.000965132)
(-0.000500536 0.00017834 -0.00114116)
(-0.000470341 0.000273579 -0.00136215)
(-0.000430377 0.000156622 -0.00120593)
(-0.000392001 0.00021302 -0.00139154)
(-0.000310812 0.000143361 -0.00119394)
(-0.000148609 0.000180274 -0.00110508)
(-0.000303516 7.52507e-05 -0.00118637)
(-0.000187493 0.000198826 -0.0013807)
(-0.000315383 -1.25078e-05 -0.00127087)
(-0.000268386 0.000188254 -0.00132149)
(-0.000319845 -8.50527e-05 -0.00130753)
(-7.58305e-05 -0.000142795 -0.00133363)
(-0.000517966 -9.06672e-05 -0.00114459)
(-0.00032225 -0.000138247 -0.00133231)
(-0.000471398 -0.000228523 -0.00116701)
(-0.00047249 -6.34814e-05 -0.000910861)
(-0.000605273 -0.000156055 -0.000320201)
(-0.000496186 -1.26091e-05 -0.000693764)
(-0.000670886 0.000381775 -0.000162357)
(-0.000593278 -3.76657e-05 4.53641e-05)
(-0.000574905 0.000363214 -0.000291799)
(-3.26304e-05 0.000299046 -9.92062e-05)
(-0.000672291 -0.000206646 -0.000320289)
(-0.000699229 -0.000166733 -0.000784979)
(-0.000823293 0.00028888 -0.000184995)
(-0.000584312 0.000362395 -0.000350416)
(-0.000426518 -4.84107e-07 -0.000183256)
(-0.00457344 -0.00130664 -0.0030369)
(-0.000456841 -1.72781e-05 -0.000211193)
(-0.00304978 -0.000829258 -0.00215032)
(-0.00583029 -0.000674742 -0.000911754)
(-0.0065549 0.000530788 -1.43298e-06)
(-0.00194243 0.00020543 -0.00109316)
(-0.00262394 0.0002589 -0.00136949)
(-0.00552072 0.000330137 -0.00139515)
(-0.00399077 0.000253629 -0.00111115)
(-0.0019792 0.000226561 -0.00107939)
(-0.000382082 0.000145312 -0.00116497)
(-0.000299906 0.000126116 -0.00130801)
(-0.00467001 0.000347994 -0.00215996)
(-0.00102071 -0.000145038 0.000661291)
(-0.000552347 0.000304852 -0.00091681)
(-5.5235e-05 5.85435e-05 -0.00105752)
(-0.00152559 -1.3653e-05 0.00108498)
(-0.0017861 -0.000129001 0.00128036)
(-0.000752028 6.01946e-07 0.000602534)
(-0.000805681 -8.20342e-05 0.000640584)
(-9.75498e-05 3.47358e-06 -0.00109474)
(2.06507e-05 -4.98342e-05 -0.00112148)
(-0.000767461 5.90212e-07 0.000616295)
(-0.000923921 -8.01024e-05 0.000722853)
(-0.00161676 -2.82369e-05 0.00116513)
(-0.00131287 -6.28182e-05 0.0009483)
(-0.000759957 -1.2002e-05 0.000614346)
(-0.000454356 -6.72527e-05 -0.00128381)
(-9.52326e-05 -0.0001596 -0.00133068)
(-0.00310205 -0.000185731 -0.00128892)
(-0.00216106 -9.24653e-05 -0.00112392)
(-0.000819594 -0.000304304 -0.000972167)
(-0.00213707 -4.82205e-05 -0.00116943)
(-0.00258507 -9.3551e-05 -0.00124259)
(-0.00170602 0.000152789 0.000521432)
(-0.00240349 0.000144962 0.000871044)
(-0.0057978 -2.76636e-05 0.000610025)
(-0.000810649 -0.000370216 -0.000919157)
(-0.00312216 1.16823e-06 -0.000719669)
(-0.00397839 0.000392663 -0.000373839)
(-0.00282804 2.17062e-05 -0.000690612)
(-0.0027929 0.000243808 -0.000257536)
(-0.00370361 0.000125109 0.000213216)
(-0.00253263 0.000288145 -0.000208181)
(-0.003568 0.000105799 1.22759e-06)
(-0.00241114 4.52112e-05 8.88326e-05)
(-0.00222801 7.45298e-05 0.000201117)
(-0.0038549 0.000254658 -0.000133306)
(-0.00346287 0.000222554 -0.000114534)
(-0.00172399 -1.2783e-05 -0.000672304)
(-0.00243121 -0.00017088 0.00126155)
(-0.00187163 -3.39524e-05 0.000967462)
(-0.00275405 -0.000100998 0.00023848)
(-0.00244283 -8.06801e-05 -0.000181098)
(-0.00175897 -7.00374e-07 -0.000914055)
(-0.00183731 2.75921e-05 -0.000956954)
(-0.00241517 0.000156767 0.000103591)
(-0.00215162 -1.1552e-05 4.84158e-05)
(-0.00255159 -1.36287e-05 2.16498e-05)
(-0.0020467 -2.0104e-05 -0.000306692)
(-0.00124679 -7.08947e-06 -0.000138782)
(-0.00203391 -1.50695e-05 -0.000307076)
(-0.00184627 9.51543e-05 0.000943566)
(-0.00240841 0.000214714 0.00128358)
(-0.00578156 -7.31705e-05 0.000332318)
(-0.0024446 -0.000142095 -0.000183142)
(-0.00586168 0.000298179 -0.000364232)
(-0.00183457 -4.29919e-05 -0.00096365)
(-0.00177257 -2.89155e-05 -0.000931292)
(-0.00275879 0.000110866 0.000929484)
(-0.00180771 4.39554e-05 -0.000675435)
(-0.00244988 0.000115392 0.00119546)
(-0.0017932 -8.62888e-05 -0.000898916)
(-0.00182349 -2.46318e-05 -0.000877212)
(-0.00297441 -0.000235351 0.00110139)
(-0.00463725 -0.000717825 -0.000280366)
(-0.00301709 -8.54624e-05 -0.000792587)
(-0.00209717 -0.000183924 -0.000941832)
(-0.00164325 2.3167e-05 -0.000594305)
(-0.00250048 -9.27233e-05 0.000263172)
(-0.00262164 -8.28999e-05 0.000496372)
(-0.00240884 -4.70641e-05 0.000101685)
(-0.00271275 0.000114655 8.69574e-05)
(-0.00247494 3.67002e-05 0.000162601)
(-0.00176877 -9.83817e-05 5.46158e-06)
(-0.00159309 0.000139787 -3.64212e-05)
(-0.0022271 -9.56828e-05 -6.63325e-05)
(-0.00162004 -9.07127e-05 -0.000282761)
(-0.00157756 -7.60406e-05 -0.000147804)
(-0.00176037 -0.000179312 -0.000243719)
(-0.00199609 -9.14154e-05 -0.000277706)
(-0.00164258 0.000135482 -9.98877e-05)
(-0.00132346 -5.7586e-05 -6.21096e-06)
(-0.00172696 1.54194e-05 -5.47615e-05)
(-0.00196835 7.75602e-05 -2.18864e-05)
(-0.00279334 5.62303e-05 0.000196818)
(-0.00317746 6.02257e-05 0.000429741)
(-0.00291679 0.0001249 0.000460752)
(-0.00193759 8.77766e-05 -4.26802e-05)
(-0.00164021 4.01076e-05 2.19367e-06)
(-0.00181764 6.35643e-06 -0.000103855)
(-0.00267477 2.56596e-05 0.000152887)
(-0.00360187 0.000135709 0.000209427)
(-0.00493507 0.000228123 -0.000272693)
(-0.00294823 0.000194409 -0.000221491)
(-0.00241029 7.89866e-05 -0.000192297)
(-0.0035416 0.000198141 0.000484655)
(-0.00305918 0.000272111 0.000859779)
(-0.00279655 0.000180783 0.00089675)
(-0.0016965 6.35894e-05 -9.77594e-05)
(-0.00221498 -3.17283e-05 -1.03377e-06)
(-0.00168334 -5.49793e-06 -0.000309197)
(-0.00189661 8.64809e-06 -0.000433043)
(-0.0018724 -5.21652e-05 -0.000639319)
(-0.00229713 8.90737e-05 0.000336478)
(-0.00293587 -0.000138788 0.00125945)
(-0.00242106 0.000128485 0.000458841)
(-0.00270213 3.26539e-06 -3.63672e-05)
(-0.00245957 0.000313858 -0.000128558)
(-0.00227465 0.000107776 0.000135563)
(-0.00198422 7.66661e-05 -1.21499e-05)
(-0.00167388 7.84848e-05 -6.12969e-05)
(-0.00206184 5.27203e-06 5.47356e-05)
(-0.00164934 8.17682e-05 -4.27096e-05)
(-0.00277301 0.000168696 -5.01735e-05)
(-0.0023073 0.000104721 0.000203053)
(-0.00209391 0.000163691 8.16058e-06)
(-0.00174242 0.000106019 -1.62568e-05)
(-0.00239101 0.000174034 -4.33482e-05)
(-0.00209327 6.45254e-05 -0.000302928)
(-0.00163383 8.56451e-05 -0.00017319)
(-0.00160954 7.63536e-05 -0.000130195)
(-0.00221112 7.74851e-05 -0.000333994)
(-0.0016898 9.2833e-05 -0.000108105)
(-0.00441136 0.000157829 -0.00195655)
(-0.0019848 0.00012327 -0.000910668)
(-0.00412996 0.000100055 0.000906779)
(-0.00456019 0.00035618 -0.00163969)
(-0.000633437 0.000213678 -0.000484741)
(-0.000280019 -8.08588e-05 0.000151258)
(-0.000766955 0.000110923 -0.000313969)
(-5.83019e-05 -3.97268e-05 0.000237376)
(-0.00187176 -0.0001292 0.000975635)
(-0.00220558 -0.000106879 0.00111507)
(-0.00252886 -0.000179635 0.0013052)
(-0.00476774 -0.000231093 0.00252773)
(-0.00318598 -6.37146e-05 0.000378024)
(-0.0016933 -6.32369e-05 -0.000468662)
(-0.00491425 -0.000220682 -0.00105769)
(-0.00228503 6.10619e-05 -0.00112796)
(-0.00190316 -7.19277e-07 -0.000991375)
(-0.00019375 6.66963e-05 -0.000525675)
(-0.000287578 -8.18293e-05 0.000125812)
(-0.000742203 0.000177039 -0.000370317)
(-0.000195752 -5.91762e-05 0.000158676)
(-0.000692878 1.34771e-05 0.000328522)
(-0.000451639 -0.000147716 0.00032812)
(-0.00175251 -0.000108096 0.000932997)
(-0.0028525 -0.000164229 0.0003927)
(-0.00267424 -0.000148113 0.00023272)
(-0.00267303 -0.00011903 0.000439222)
(-0.0021009 -1.13951e-05 0.000278767)
(-0.00256291 3.35795e-05 0.000636308)
(-0.00249604 -2.24251e-05 0.000639092)
(-0.00201327 2.97157e-06 0.000156854)
(-0.00228062 9.91244e-05 0.000159245)
(-0.00226001 3.57226e-05 0.000111718)
(-0.00145898 -9.78807e-05 3.17095e-05)
(-0.00170549 -1.80318e-05 -1.43479e-05)
(-0.00190393 -4.7019e-05 -2.95446e-05)
(-0.00137918 -7.82659e-05 -8.38997e-05)
(-0.0020618 -2.08383e-05 -0.000313836)
(-0.00209098 -6.75172e-06 -0.000284051)
(-0.000667407 -1.08032e-05 0.00035005)
(-0.000578785 -3.78548e-05 0.000388194)
(-0.000632698 -4.5975e-05 -0.000465358)
(-0.000576817 -8.21105e-05 -0.000525574)
(-0.00263008 -1.94077e-05 0.000635304)
(-0.00217696 8.3174e-06 0.000263601)
(-0.00185207 8.53454e-05 0.000934596)
(-0.00189716 0.000159612 0.000975839)
(-0.00219528 4.87027e-05 0.000318099)
(-0.0026189 0.000183286 0.000579879)
(-0.00266273 0.000124695 0.000666809)
(-0.00169481 -1.79136e-05 -1.16229e-05)
(-0.00127221 -3.68941e-06 -1.12446e-05)
(-0.00169392 1.47702e-06 -8.95446e-06)
(-0.00208126 -2.8734e-05 0.000212584)
(-0.00265532 -8.26249e-05 0.000136987)
(-0.00230479 -7.79225e-05 0.000120348)
(-0.00208524 -2.66443e-06 -3.57602e-05)
(-0.00298311 0.000181449 -0.000132665)
(-0.00186192 -2.03117e-05 -0.000124971)
(-0.00236623 -0.000130434 -0.000249624)
(-0.00215051 -5.58007e-05 -0.000206664)
(-0.00180252 -2.21889e-05 -0.000933081)
(-0.000638058 -5.12924e-05 -0.000457939)
(-0.000567831 9.58035e-06 -0.000542054)
(-0.000605592 -1.5668e-05 0.000366321)
(-0.000714539 -1.87826e-05 -2.42676e-06)
(-0.00243514 0.000108382 0.00117225)
(-0.00266671 0.000193196 0.000505431)
(-0.00647928 -3.25695e-07 0.000358814)
(-0.00297002 0.000225024 0.000484288)
(-0.0018245 8.5026e-05 -0.000383187)
(-0.00161435 8.19589e-05 -0.000335397)
(-0.000578079 -4.08228e-05 0.000410637)
(-0.000650479 -5.02257e-05 0.000325975)
(-9.80492e-05 -0.000192878 -0.000447489)
(-0.000209294 -7.69919e-05 0.000276959)
(-0.000115479 -9.47341e-05 -0.000434645)
(-4.94681e-05 -0.000153576 0.000232186)
(-0.00320395 0.000804548 0.00202044)
(-0.00206928 4.43216e-05 -0.000421825)
(-0.00176972 8.64756e-05 -0.000485382)
(-0.00188382 -8.8615e-05 -0.000950835)
(-0.000193596 -0.000259072 -0.000673931)
(-0.000197432 -6.52607e-05 0.000273084)
(-0.000133673 -6.76395e-05 -0.000422729)
(-9.478e-05 9.90113e-06 0.000225131)
(-0.00177511 6.77201e-05 0.000852826)
(-0.00134135 -0.000293262 0.00106012)
(-0.00196058 -0.000294957 0.00091756)
(-0.00502818 -0.000243119 0.0018484)
(-0.00196351 3.56619e-05 -0.000947992)
(-0.008905 -0.00126039 0.00393434)
(-0.00452534 -0.000314459 0.000405578)
(-0.003229 0.000173134 -5.05847e-05)
(-0.00434249 0.000264889 -5.13384e-05)
(-0.00161762 0.00125537 5.66782e-05)
(-0.000452489 0.000361442 -0.000409816)
(-0.000332973 -0.000145584 5.13166e-05)
(5.62809e-05 -0.000129743 -5.7509e-05)
(-0.000100437 7.79828e-05 -0.000127707)
(-0.000916137 7.62395e-05 0.000583912)
(-6.3983e-05 -0.000178107 0.000663089)
(-0.000252681 0.000177086 -0.000131647)
(-0.000137385 -9.80337e-05 0.000731887)
(-0.000439458 -0.000431114 -0.000377317)
(-0.000441934 -0.000148062 4.41087e-05)
(-0.000111779 -0.000145222 -8.22101e-05)
(-8.78602e-05 -0.000117589 -0.00010932)
(-0.000507888 0.000346977 -0.000342532)
(-0.000292939 1.83043e-05 0.000113043)
(3.0692e-05 -4.85406e-05 -6.85377e-05)
(2.34858e-05 7.43444e-05 -7.44363e-05)
(-0.000447981 -0.000491063 0.000351271)
(-0.00026968 -0.000276998 0.000790216)
(7.4854e-05 8.72858e-07 -7.95338e-05)
(-0.000345398 -0.000159533 0.000879897)
(-0.000338751 0.000338376 0.000425117)
(-0.000873748 1.15472e-05 -7.19429e-05)
(3.12683e-05 3.30407e-05 0.000222226)
(-0.000727027 2.09471e-05 0.000582281)
(-0.000457947 -0.00043446 -0.000397598)
(-0.000258333 -4.61063e-06 0.000115005)
(8.64955e-05 -1.13043e-05 -2.53706e-05)
(-6.93554e-07 -0.000127693 -6.91683e-05)
(-0.000461176 0.000348398 -0.000351265)
(-0.000770151 -1.10342e-05 0.00025047)
(-0.000765676 3.3226e-05 3.55021e-05)
(7.4841e-06 6.41554e-05 -9.94565e-05)
(-0.000306904 -0.000467955 0.000529351)
(-0.000858407 -4.49639e-06 -7.32238e-05)
(3.72846e-06 -0.000127677 0.000203708)
(-0.000630799 -0.000130287 0.00018469)
(-0.00038272 0.000353299 0.000465985)
(-0.000752964 -1.20619e-05 -0.000147287)
(2.31662e-05 6.81762e-05 0.000186161)
(-0.000566898 2.95716e-05 5.3066e-05)
(-0.000404754 -0.000417417 -0.000375101)
(-0.000773159 -6.2952e-05 0.000259831)
(-0.000727798 -0.000112438 0.000102628)
(-3.39634e-06 -0.000113043 -9.46095e-05)
(-0.000493185 0.000388361 -0.000364242)
(-0.000107728 5.60578e-06 9.80219e-05)
(-0.000158855 0.000150542 8.17406e-05)
(-4.53104e-05 0.000110798 -9.04088e-05)
(-0.000334714 -0.000436765 0.000475788)
(-0.000760118 -4.6577e-05 -0.000144228)
(2.03133e-05 -0.000108622 0.000180451)
(-0.000578908 -0.000120435 4.54568e-05)
(-0.000363808 0.000401644 0.000482553)
(-0.00070391 6.29942e-05 -0.000155506)
(9.37867e-07 0.000102007 0.000196003)
(-0.000543469 8.14304e-05 3.75511e-05)
(-0.000468819 -0.000410788 -0.000382817)
(-0.000100458 -6.96546e-05 9.39347e-05)
(2.47077e-05 -8.78018e-05 -9.42491e-06)
(-3.49285e-05 -9.94714e-05 -8.32556e-05)
(-0.000509293 0.000380139 -0.000325796)
(-0.000308382 -8.41538e-06 0.00010779)
(5.14114e-05 6.63513e-05 -0.000102041)
(1.78825e-05 9.92227e-05 -4.55446e-05)
(-0.000325141 -0.000383518 0.000489173)
(-0.000753171 1.86672e-05 -9.05056e-05)
(-8.20441e-06 -7.98983e-05 0.000198662)
(-0.000567753 -0.000155566 6.4521e-05)
(-0.000494999 0.000344315 0.000406855)
(-0.000225622 0.000128706 0.000936946)
(-0.000333209 4.62537e-05 -0.000122928)
(-0.000552567 0.000215228 0.00131264)
(-0.000510316 -0.000406101 -0.000302398)
(-0.000286855 -4.58633e-05 0.000124108)
(-6.29117e-05 -6.87449e-05 -1.22113e-06)
(1.48088e-05 -0.000129432 -4.0215e-05)
(-0.000814481 -1.42159e-05 0.00061178)
(-0.000191536 5.73408e-05 0.000980706)
(-0.000345011 -7.57714e-05 -0.000116444)
(-0.000596636 4.44602e-05 0.0013262)
(-0.00187014 -0.000498809 -0.00132056)
(-0.0093828 -0.0056305 -0.00460143)
(-0.00463747 -0.00109598 -0.00190256)
(-0.0115504 -0.00291151 -0.00265851)
(-0.00438051 0.000160755 -0.000275365)
(-0.00329435 0.000193732 -0.000263568)
(-0.00729529 0.000241856 -0.000621259)
(-0.00385635 0.000333472 7.43367e-05)
(-0.00206272 -6.2559e-05 0.000110673)
(-0.00205723 5.90095e-05 -0.000402878)
(-0.0030155 2.91667e-05 -0.000430062)
(-0.00272918 -5.47296e-05 0.000122972)
(-0.00204826 5.96815e-05 -0.000208807)
(-0.00161113 -6.43329e-05 -2.90454e-05)
(-0.00133682 -1.38466e-05 -2.1435e-05)
(-0.00183293 -0.000136246 -2.71849e-05)
(-0.00131871 -2.3275e-06 -1.17983e-05)
(-0.00189511 1.10303e-05 0.000291454)
(-0.00128458 -1.45067e-06 0.000150342)
(-0.00127867 2.22216e-08 0.000140405)
(-0.00143677 -8.28751e-05 0.000332057)
(-0.000172513 -0.00021497 0.000672471)
(-0.000120581 -6.83574e-05 0.0006576)
(-0.000679279 -0.000193987 0.000665171)
(-0.000261121 -4.26783e-05 0.000801536)
(-0.00177985 -2.2583e-05 0.000372994)
(-0.00163644 -5.83132e-05 0.000328877)
(-0.00288506 8.92863e-06 0.000651451)
(-0.00149006 -1.61724e-05 0.000364136)
(-0.00157829 -3.4946e-05 0.000404479)
(-0.00302963 -5.00048e-05 0.000665297)
(-0.000802309 -0.000140583 0.000645447)
(-0.000730735 -9.72321e-05 0.000658875)
(-0.000839055 -2.18964e-05 0.000331541)
(-0.000777862 -4.97543e-05 0.000384187)
(-0.00315725 -1.60492e-05 0.000699415)
(-0.0015042 -1.23773e-05 0.000370961)
(-0.00305836 -2.81565e-05 0.000662728)
(-0.00153961 -2.84414e-05 0.000381203)
(-0.00206996 5.57231e-06 0.000389652)
(-0.00194485 -6.34093e-05 0.000406667)
(-0.000833468 -2.24453e-05 0.000343841)
(-0.000766772 -4.79908e-05 0.000415653)
(-0.000834676 6.40845e-05 0.000284611)
(-0.000777076 1.2615e-05 0.00036598)
(-0.00259788 8.85205e-05 -0.000381657)
(-0.00234579 -3.97952e-05 -0.000295645)
(-0.00252769 6.64474e-05 -0.000138767)
(-0.0026802 0.000159197 -0.000124278)
(-0.0024715 -4.70816e-05 -7.3455e-05)
(-0.0025433 0.000115231 -7.62366e-05)
(-0.00284663 0.00011669 0.000103342)
(-0.00335887 -2.40787e-05 0.000102998)
(-0.00144511 5.10164e-06 -9.12151e-06)
(-0.00237783 -5.58693e-05 1.69204e-05)
(-0.00174037 8.52207e-06 1.79562e-05)
(-0.00166545 -3.9665e-05 0.000356566)
(-0.00189251 -4.73528e-05 0.000398594)
(-0.00241056 0.000131176 0.000348463)
(-0.00137387 1.85547e-05 0.000126537)
(-0.00224777 -7.88822e-06 0.000157168)
(-0.00176794 1.01528e-06 0.000295966)
(-0.000814991 3.35015e-05 0.000460534)
(-0.000771145 -7.10282e-05 0.000576237)
(-0.000527652 0.000298622 0.00168953)
(-0.000606163 0.000113565 0.0014189)
(-0.002292 -7.74084e-06 -0.000400859)
(-0.00233969 -3.15284e-05 -0.000199621)
(-0.00271865 7.49938e-05 0.00017281)
(-0.00139275 4.05284e-06 1.92048e-07)
(-0.00169513 3.43998e-05 -7.26795e-06)
(-0.00132049 1.21751e-05 0.000158195)
(-0.00169792 -1.89954e-05 0.000369286)
(-0.00047563 0.000268815 0.00169189)
(-0.00192589 -0.000152306 -0.00140445)
(-0.00287199 -0.000580636 -0.00245312)
(-0.0027276 -0.000306356 -0.00136756)
(-0.00244961 -0.00020222 -0.00107847)
(-0.00123318 -2.11228e-05 -0.00067688)
(-0.00154088 0.00013062 -0.000959172)
(-0.00147255 0.000108057 -0.000848712)
(-0.00167004 -5.94852e-05 -0.00070073)
(-0.00158604 7.82619e-05 -0.00100832)
(-0.00196677 -1.79222e-05 0.000974619)
(-0.00182613 -1.89912e-05 0.000941855)
(-0.00248388 1.2463e-05 0.000231757)
(-0.00228998 4.10108e-05 0.000155676)
(-0.00240577 4.82813e-05 0.000159403)
(-0.00227996 -7.84377e-05 -0.00025612)
(-0.00255553 -7.90039e-05 -0.000175172)
(-0.0022699 3.66751e-05 -0.000219243)
(-0.00245354 5.96532e-05 -0.00024124)
(-0.00219181 -5.577e-05 -0.000203112)
(-0.00231401 2.15691e-05 -0.000186842)
(-0.00259239 5.00573e-05 -0.000223132)
(-0.00205816 5.80535e-06 -0.00101383)
(-0.00161154 -4.36001e-05 -0.000800147)
(-0.00174975 -3.89846e-06 -0.000918474)
(-0.00216503 -7.91045e-06 -0.0010801)
(-0.00240852 5.96843e-05 -0.00121339)
(-0.00263945 -6.9626e-05 -0.00134546)
(-0.00257782 7.55578e-06 0.00133913)
(-0.00255837 4.88355e-05 0.00139328)
(-0.0025966 0.000113531 0.00135118)
(-0.0025732 7.79713e-05 0.00139918)
(-0.00240243 0.000128226 0.000165689)
(-0.00214604 1.02592e-05 0.000212454)
(-0.00253402 -4.93056e-06 0.000123289)
(-0.00213785 -3.13854e-05 0.000159158)
(-0.00227075 5.94746e-06 0.000111519)
(-0.00240942 -9.95963e-05 0.000110461)
(-0.00212121 -6.92975e-06 0.000202719)
(-0.00230926 4.99242e-06 0.000157939)
(-0.00240419 -7.52034e-05 0.000169388)
(-0.00223053 -1.81554e-05 -0.000286216)
(-0.00221551 -1.64183e-05 -0.000286423)
(-0.00126021 -3.85369e-06 -0.000138533)
(-0.00206944 -1.65278e-05 -0.000292413)
(-0.00204921 -1.44286e-05 -0.000308034)
(-0.00224285 -1.97777e-05 -0.000275165)
(-0.00223203 -1.63192e-05 -0.000287263)
(-0.00152235 -1.73632e-05 -0.000689742)
(-0.00153502 -1.17208e-05 -0.00069921)
(-0.00234344 -2.59039e-05 -0.00113127)
(-0.00234879 -3.41529e-05 -0.00113528)
(-0.00151235 -1.88888e-05 -0.000684234)
(-0.00151554 -2.71256e-05 -0.000686502)
(-0.00236002 -2.37769e-05 -0.00114036)
(-0.00237847 -1.80356e-05 -0.00115592)
(-0.00276531 0.000211222 0.00141645)
(-0.00255681 0.00028746 0.00131315)
(-0.00251407 -0.000123503 -0.000180862)
(-0.00226703 7.86908e-05 -0.000285323)
(-0.00365126 0.000235734 -0.000241832)
(-0.00236895 6.99049e-05 -0.000291869)
(-0.00250124 -0.000123326 -0.00126608)
(-0.00196438 -6.10268e-05 -0.0010381)
(-0.00217365 -0.000121176 -0.00107891)
(-0.00209744 -5.81807e-05 -0.00103126)
(-0.00266486 -2.65903e-05 0.000571699)
(-0.00279634 0.000126601 0.000884841)
(-0.00342807 0.000262679 0.000957086)
(-0.00272658 0.000218929 0.000874396)
(-0.00636488 0.00028148 0.00145629)
(-0.00282691 0.00022122 0.000795834)
(-0.00163321 -0.000103055 -0.0012006)
(-0.00404507 -0.000207842 -0.00211346)
(-0.0019507 1.63359e-05 -0.000703343)
(-0.00148152 -0.000111877 -0.00081648)
(-0.00157201 -7.44975e-05 -0.00107169)
(-0.0024635 9.14679e-05 0.00122031)
(-0.00249131 3.46865e-05 -0.00113525)
(-0.00196265 -3.33569e-05 -0.000954877)
(-0.0017506 1.13358e-05 -0.000759641)
(-0.011516 -0.00212861 0.00235638)
(-0.00531093 -0.000537529 0.00191374)
(-0.00457843 -0.000173645 0.00129182)
(-0.00581926 0.00104836 0.00524683)
(0.000433367 -0.000418123 -5.18244e-07)
(-0.000572391 -0.000282871 -0.000484149)
(-0.000412282 -0.000455958 0.000270869)
(0.000421397 -0.000260442 -4.70847e-05)
(-0.000418258 -0.00060334 0.000681318)
(-0.000330516 1.5159e-05 -0.000619485)
(-0.00495754 -0.00125765 0.00105884)
(-0.0105211 -0.00506881 -0.00111331)
(-0.00464374 -0.000553816 -0.000126781)
(-0.00465816 -0.000654653 -0.000211178)
(-0.00533402 -0.000563683 -3.09607e-05)
(-0.00559891 -0.000885548 -0.000505695)
(-0.00472828 -0.000823576 -0.000691569)
(-0.00579095 -0.000836048 -0.000422424)
(-0.00142545 -0.000290495 0.00117838)
(-0.000383522 0.000173623 -0.00130014)
(-0.000319673 0.000205612 -0.00117134)
(-0.00359013 -0.00025938 0.00222733)
(-0.000199641 0.000161613 -0.00115205)
(-0.000554747 3.7162e-05 -0.000495026)
(-0.000113269 0.000137912 -0.00109114)
(-0.000570818 5.30987e-05 -0.000536059)
(-0.00116176 -1.8995e-05 0.000841967)
(-0.00115077 4.81473e-05 0.000803969)
(-0.000505445 0.000156734 -0.00107904)
(-0.000450678 0.000113787 -0.00109769)
(-0.000463279 1.51578e-05 -0.00106351)
(-0.000574396 -0.000109107 -0.000580724)
(-0.000527874 -0.000216417 -0.00117675)
(-0.000428488 -0.000110411 -0.00096494)
(-0.00291129 -2.61549e-05 0.00219742)
(-0.000262667 9.66613e-06 -0.00118964)
(-0.000578791 2.19117e-05 -0.000571768)
(-0.000308224 -3.32488e-05 -0.00115709)
(-0.00110268 3.64713e-05 0.000734865)
(-0.00105091 2.27185e-05 0.000732208)
(-0.000394296 -5.48274e-05 -0.00145319)
(-0.000480531 2.05972e-06 -0.00140053)
(-0.00231726 0.000141687 0.00154852)
(-0.00175754 0.000150217 0.000849842)
(-0.00264107 0.000204696 0.00122515)
(-0.00176365 0.000134616 0.000867818)
(-0.00212712 0.000209507 0.000788935)
(-0.00250278 0.000201691 0.00115821)
(-0.00374601 -5.46716e-05 -0.000716258)
(-0.00273792 -3.27915e-05 -0.00059543)
(-0.00312463 -0.000152476 -0.00091801)
(-0.00649262 6.37379e-05 -0.00151758)
(-0.0035686 -0.000144358 -0.000915426)
(-0.00292019 2.21903e-05 -0.000754184)
(-0.00376957 9.33947e-05 0.000476387)
(-0.00269731 0.000162532 0.000269471)
(-0.00273629 0.000198297 0.000283362)