/*--------------------------------*- C++ -*----------------------------------*\
  =========                 |
  \\      /  F ield         | OpenFOAM: The Open Source CFD Toolbox
   \\    /   O peration     | Website:  https://openfoam.org
    \\  /    A nd           | Version:  10
     \\/     M anipulation  |
\*---------------------------------------------------------------------------*/
FoamFile
{
    format      ascii;
    class       volScalarField;
    location    "0.1";
    object      k;
}
// * * * * * * * * * * * * * * * * * * * * * * * * * * * * * * * * * * * * * //

dimensions      [0 2 -2 0 0 0 0];

internalField   nonuniform List<scalar> 
114955
(
0.0949208
0.094847
0.0948182
0.0948174
0.094805
0.0948105
0.0948008
0.0948818
0.0948487
0.0948213
0.0948179
0.0948171
0.0948067
0.0947998
0.0949315
0.0948563
0.09481
0.0948189
0.0948006
0.0947993
0.0947963
0.0948906
0.0948545
0.0948152
0.0948849
0.095
0.0948129
0.0948063
0.0952628
0.0951314
0.095121
0.0952596
0.0949349
0.0948778
0.0952159
0.0950114
0.0948949
0.0948351
0.0949093
0.0948301
0.0948064
0.0955307
0.0957077
0.0950639
0.0950368
0.0949081
0.0948519
0.0948258
0.094842
0.09485
0.0948159
0.0951055
0.0949789
0.0948988
0.0952222
0.0950196
0.0948759
0.0948913
0.0950752
0.0948337
0.094858
0.0951793
0.0949369
0.0949678
0.0952279
0.0953442
0.0950889
0.0949966
0.0949024
0.0949946
0.0952044
0.0956571
0.0953552
0.0948548
0.0948496
0.0948817
0.0951186
0.0955412
0.0952964
0.0948607
0.0948175
0.0948761
0.0951212
0.0951541
0.0951952
0.0953154
0.0960519
0.0953774
0.0948974
0.0949143
0.0948599
0.0948245
0.0948
0.0947938
0.0947933
0.0959405
0.0954139
0.0953555
0.0949493
0.0949668
0.0951667
0.094865
0.0948148
0.0948088
0.096673
0.0959057
0.0953387
0.0952618
0.0953035
0.0954762
0.095728
0.0953817
0.0948896
0.0948163
0.0962706
0.096314
0.0957989
0.0954769
0.0950305
0.0949911
0.0952859
0.0954696
0.0952357
0.0948865
0.0956684
0.0962588
0.0962484
0.0949995
0.0950445
0.0949246
0.0949763
0.0955246
0.0950586
0.0951683
0.0954291
0.0959482
0.0958384
0.095518
0.0950967
0.0950066
0.0953835
0.0956121
0.0953107
0.0949783
0.095148
0.0951215
0.0950531
0.0955336
0.0957525
0.0951135
0.0967518
0.101597
0.0977138
0.0971531
0.0950762
0.0951125
0.0952111
0.095767
0.0958813
0.0965241
0.100331
0.0988287
0.0958677
0.096017
0.0949878
0.0949465
0.0950964
0.0955917
0.0972008
0.100495
0.0991863
0.0965295
0.0950531
0.0949344
0.0948903
0.0952383
0.0953239
0.0961879
0.100276
0.0992181
0.0963753
0.0983609
0.0964217
0.0956144
0.0956373
0.0950544
0.0950785
0.0951508
0.0948523
0.0948166
0.0948059
0.0978177
0.0979247
0.0960833
0.0960572
0.0959711
0.0955974
0.0958816
0.0962479
0.095535
0.0949257
0.0948376
0.097263
0.096234
0.0961454
0.0963604
0.102004
0.0984274
0.101285
0.102974
0.097629
0.0956211
0.0949796
0.0978027
0.0986003
0.0981484
0.101488
0.0988129
0.0972758
0.0963562
0.100011
0.101241
0.0972699
0.0955373
0.0971959
0.102491
0.101046
0.0961266
0.096493
0.0953666
0.0973538
0.0996096
0.0957965
0.0951851
0.0958895
0.0989577
0.102953
0.0990089
0.0984966
0.0951975
0.0956205
0.0988454
0.0971809
0.0980522
0.0952442
0.0956506
0.0962332
0.102037
0.100547
0.0959592
0.0958222
0.0973416
0.0961129
0.0961417
0.0951371
0.0950889
0.0953132
0.0975074
0.101954
0.09722
0.097008
0.0968707
0.0994785
0.0961076
0.095172
0.095476
0.0974966
0.10012
0.0992758
0.0982424
0.0992808
0.0957266
0.0951186
0.0948973
0.0951474
0.0963993
0.0986549
0.0990208
0.0967753
0.0989193
0.0951846
0.0959747
0.0953964
0.0949208
0.094912
0.094848
0.0948115
0.0948051
0.0947993
0.0947986
0.0985872
0.0964548
0.095659
0.0954793
0.0950382
0.0950645
0.0949521
0.0948289
0.0948167
0.0948018
0.102007
0.10216
0.102252
0.100034
0.101232
0.0961823
0.0958808
0.0954515
0.0951189
0.0948586
0.0948226
0.0998069
0.101668
0.105102
0.100804
0.101774
0.0987557
0.101436
0.0968
0.0954852
0.0951933
0.0948686
0.100209
0.100315
0.102194
0.0989777
0.0987779
0.0973711
0.0985851
0.101063
0.100862
0.0966357
0.0952091
0.0991969
0.099884
0.102358
0.101487
0.0968531
0.0992744
0.102575
0.102265
0.105717
0.100165
0.0969138
0.100474
0.100876
0.102444
0.104318
0.0967446
0.0955853
0.0954831
0.0976837
0.0983472
0.10096
0.100891
0.0970981
0.10122
0.102718
0.101849
0.0964675
0.0950998
0.0958654
0.0967328
0.0969162
0.0981964
0.095753
0.099078
0.101131
0.100017
0.104249
0.0954926
0.0959227
0.0986786
0.098816
0.0966508
0.0951535
0.0953575
0.0960432
0.10131
0.101882
0.0997576
0.0994876
0.100105
0.0985608
0.0979018
0.0950951
0.095583
0.097411
0.0995934
0.0996459
0.0989553
0.0981236
0.0980721
0.0997301
0.0951567
0.0960929
0.0974124
0.0982447
0.0973326
0.0952527
0.0967627
0.0956274
0.0962617
0.095783
0.095357
0.0951108
0.094923
0.0949227
0.0948554
0.0948222
0.0948053
0.0948015
0.0980498
0.0979639
0.0959998
0.0960641
0.096154
0.095274
0.0954161
0.0951552
0.0948839
0.0948174
0.0948031
0.101847
0.101414
0.106176
0.1028
0.103143
0.0986958
0.102244
0.0976519
0.0952625
0.094919
0.0948412
0.0994683
0.101757
0.111242
0.106291
0.0978111
0.0981129
0.104321
0.101626
0.0964221
0.0951384
0.0950859
0.097042
0.0991059
0.104315
0.100803
0.102965
0.106795
0.104959
0.100693
0.0990687
0.0956804
0.0956058
0.0987785
0.100831
0.106196
0.0999197
0.100717
0.101312
0.102028
0.0997682
0.100316
0.099763
0.0958941
0.100302
0.10026
0.10268
0.102685
0.0969062
0.0978035
0.0988962
0.104272
0.0997619
0.0975771
0.097578
0.100283
0.102042
0.106877
0.0999855
0.0970569
0.0973353
0.0980342
0.0996676
0.0987442
0.0972205
0.0963781
0.100448
0.104129
0.100131
0.0977843
0.0983181
0.0962417
0.0994749
0.112703
0.0977999
0.0955035
0.0981047
0.100163
0.100505
0.102403
0.0973244
0.0931876
0.0938224
0.0855998
0.0948862
0.100501
0.103586
0.100854
0.0959049
0.0822194
0.0438888
0.0963609
0.0980717
0.0964024
0.0947773
0.051645
0.0956101
0.0963293
0.0958924
0.0954217
0.0952077
0.094963
0.0948822
0.0948453
0.094819
0.0948054
0.0948025
0.0959719
0.0979875
0.0978571
0.0958938
0.0958521
0.095454
0.0954343
0.0956263
0.0952329
0.094908
0.0948392
0.0948111
0.0966854
0.102045
0.100082
0.103025
0.104203
0.0998756
0.102254
0.10203
0.0973514
0.0952719
0.0949407
0.0948753
0.0954887
0.0998874
0.100879
0.106953
0.102663
0.112236
0.0983882
0.106466
0.101233
0.0961651
0.0951523
0.0950915
0.0953434
0.0976352
0.0960954
0.0968056
0.0831492
0.0989525
0.104102
0.0990502
0.101502
0.0987172
0.0959799
0.0959525
0.0990872
0.0963269
0.106365
0.0971799
0.0534088
0.086455
0.0977258
0.101213
0.104307
0.0989846
0.096542
0.100514
0.102096
0.0980826
0.105875
0.0827579
0.0475176
0.0798992
0.104738
0.0983138
0.101348
0.0973465
0.100102
0.103592
0.10522
0.0993876
0.0798189
0.0747921
0.0967633
0.101118
0.0980631
0.0963935
0.10068
0.108221
0.100092
0.0968436
0.0893282
0.0480615
0.0641212
0.100939
0.095538
0.0982189
0.100005
0.102692
0.101692
0.0989782
0.0792478
0.0477493
0.100525
0.106775
0.102546
0.0943044
0.0709116
0.0959221
0.097044
0.0985999
0.0951751
0.0951522
0.0957884
0.0954212
0.0951717
0.0952664
0.0948934
0.0948173
0.0948009
0.0947978
0.0947983
0.0951427
0.0952587
0.0963299
0.0987645
0.0963792
0.0960396
0.0962501
0.0964637
0.0953728
0.0949512
0.0948352
0.0948052
0.0947979
0.0953587
0.0969022
0.102149
0.102592
0.100651
0.10232
0.105803
0.103824
0.0970938
0.0953265
0.0949033
0.0948251
0.094807
0.0955688
0.0968494
0.100238
0.101444
0.102318
0.100321
0.10144
0.102437
0.10095
0.0966875
0.0951387
0.0948602
0.0948299
0.0953587
0.0962506
0.100635
0.101811
0.112004
0.0979142
0.107453
0.0989366
0.103503
0.101122
0.096057
0.0951438
0.0949303
0.0955064
0.0966092
0.0996727
0.101814
0.0985019
0.0983473
0.0982319
0.103436
0.0995014
0.104439
0.100363
0.0960597
0.0957744
0.0952794
0.0964768
0.10065
0.100751
0.102175
0.105887
0.0977865
0.0971251
0.103514
0.101525
0.103593
0.098908
0.0955247
0.0951238
0.0951246
0.0958645
0.0973903
0.101378
0.113771
0.103033
0.098188
0.0982512
0.105575
0.10099
0.0993542
0.0971514
0.0951171
0.0951834
0.095269
0.0956974
0.0988352
0.101011
0.101028
0.101958
0.0964918
0.0972498
0.108678
0.0986359
0.0951468
0.0954171
0.0962533
0.10146
0.109094
0.100325
0.0968513
0.0949515
0.0856553
0.0978504
0.0984053
0.0987447
0.0926477
0.095063
0.095261
0.0951564
0.0950491
0.0949682
0.0949151
0.0948429
0.0948174
0.094809
0.0948022
0.0948023
0.095123
0.0951281
0.0951513
0.0951773
0.0967079
0.0960969
0.0955029
0.095759
0.0950035
0.094851
0.0948083
0.0948031
0.0947994
0.095144
0.0952331
0.0963558
0.0988499
0.0964855
0.0962317
0.0970136
0.0973896
0.095602
0.0950072
0.0948711
0.0948192
0.0948159
0.0953067
0.0962834
0.0999364
0.101596
0.100393
0.10269
0.105002
0.10414
0.0963397
0.095049
0.0948298
0.0948267
0.0948315
0.0952513
0.0958592
0.0996577
0.100629
0.100429
0.103364
0.0984867
0.0989527
0.101907
0.0965812
0.0951037
0.0948577
0.0948618
0.0952964
0.0962699
0.0995867
0.101288
0.10113
0.104107
0.0964509
0.0968945
0.100881
0.101703
0.0959798
0.0950783
0.0949014
0.095134
0.0951443
0.0960258
0.0976192
0.101623
0.109108
0.0965023
0.096739
0.0969424
0.0990689
0.100398
0.0959569
0.0954061
0.0951268
0.0951872
0.0952431
0.0957019
0.0994409
0.101831
0.100312
0.100284
0.0954309
0.0962545
0.0965195
0.0974115
0.0964033
0.0950747
0.0950435
0.0949926
0.0951597
0.0955938
0.0965769
0.102114
0.10484
0.0971086
0.0957147
0.0966388
0.10038
0.0950797
0.0950946
0.0952288
0.0970443
0.0999953
0.0975336
0.0964798
0.0997568
0.098206
0.0977004
0.0973381
0.0999536
0.0965417
0.098859
0.0949857
0.0949602
0.0950488
0.0950093
0.0949263
0.0949176
0.094848
0.0948214
0.0948082
0.094803
0.0948013
0.095092
0.0950746
0.0950708
0.0952398
0.0951231
0.0950356
0.094974
0.0948969
0.0948391
0.0948202
0.0948117
0.0948027
0.0948008
0.0951186
0.0951287
0.0951398
0.0951389
0.096765
0.0961245
0.0955491
0.0957359
0.095036
0.0948645
0.0948179
0.0948063
0.0948015
0.0854895
0.0951985
0.0951092
0.0951351
0.0957593
0.0966967
0.096358
0.0960805
0.0962872
0.0961487
0.0951204
0.0949224
0.0948576
0.0948204
0.0948117
0.0854902
0.0952021
0.0951038
0.0951039
0.0954575
0.0970767
0.0956814
0.0957183
0.0954147
0.0952758
0.0950709
0.0950265
0.0948535
0.0948341
0.0948371
0.0854911
0.0951936
0.0950992
0.0951215
0.0957521
0.0967178
0.0958874
0.0959442
0.095379
0.0950604
0.0956691
0.0955452
0.0950195
0.0948926
0.0948792
0.095121
0.0951476
0.0952462
0.0955506
0.0971568
0.0966134
0.0952325
0.0950682
0.0949732
0.0952449
0.095263
0.0950128
0.0949725
0.0950754
0.0950577
0.0950284
0.0952381
0.0957213
0.0961334
0.0955179
0.0952199
0.0950418
0.0951603
0.0953341
0.0951966
0.0949036
0.0950876
0.0950806
0.0950171
0.0950361
0.0950445
0.0950706
0.0955712
0.0957331
0.0951876
0.0960871
0.101324
0.0972014
0.0956272
0.0950026
0.0950403
0.095227
0.0956489
0.0960852
0.0963734
0.09961
0.0975935
0.096095
0.0960944
0.0959179
0.0986569
0.0981181
0.095686
0.0949821
0.0949927
0.0949596
0.0949228
0.0948793
0.0948491
0.0948194
0.0948121
0.0948054
0.0948032
0.0948033
0.0948043
0.0950871
0.0950591
0.0949689
0.0949555
0.0950486
0.0950074
0.0949191
0.0949132
0.0948497
0.0948258
0.0948096
0.0948044
0.0948006
0.094802
0.0854826
0.095204
0.0950944
0.0950826
0.0950457
0.0952471
0.0951767
0.0950691
0.0949696
0.0949076
0.0948368
0.0948157
0.0948074
0.0948009
0.0948022
0.0854839
0.0952165
0.0951056
0.0951143
0.0950152
0.0950433
0.0959076
0.0954846
0.0951744
0.0951979
0.0949251
0.0948456
0.0948151
0.0948058
0.094799
0.0854854
0.0952092
0.0950998
0.0950935
0.0950171
0.0949854
0.0959307
0.0956021
0.0951725
0.0949416
0.0948455
0.0948223
0.0948084
0.0947987
0.0948008
0.0854853
0.0952163
0.0951022
0.0951127
0.0950108
0.0949943
0.0959699
0.0956221
0.0950797
0.094943
0.0948886
0.0949864
0.094857
0.094817
0.0947979
0.0854861
0.0952035
0.0950875
0.0950764
0.0950339
0.0952993
0.0955067
0.0953791
0.0951364
0.0949572
0.094892
0.0948238
0.0948487
0.0948193
0.0948131
0.0950825
0.0950693
0.0949639
0.0949638
0.0949605
0.0949709
0.0952445
0.0950591
0.0949044
0.0949345
0.0949935
0.0948258
0.0948248
0.0950732
0.0950557
0.0949701
0.0950165
0.0950217
0.095137
0.0951699
0.0949606
0.0949751
0.0950576
0.0951399
0.0950702
0.0948956
0.0949372
0.0948989
0.094874
0.0948646
0.0949544
0.0953492
0.095385
0.0952611
0.0948516
0.0948425
0.0950352
0.0954217
0.0953354
0.0948445
0.0949639
0.0949327
0.0949294
0.0949023
0.0948716
0.0948548
0.0948316
0.0948188
0.0948105
0.0948057
0.0948046
0.094803
0.0854807
0.0952038
0.0950868
0.0950563
0.0949897
0.094985
0.0949478
0.0949093
0.0948754
0.0948436
0.0948225
0.0948136
0.0948081
0.0948042
0.0948042
0.0948038
0.0854822
0.0952039
0.0950873
0.0950596
0.0949875
0.0949751
0.0950558
0.0949897
0.0949347
0.0949104
0.0948525
0.0948264
0.0948114
0.0948049
0.0948027
0.0948019
0.0854838
0.0952027
0.0950935
0.0950726
0.0950544
0.0951726
0.095087
0.0949887
0.0949199
0.0948761
0.09483
0.0948191
0.0948108
0.0948053
0.0948052
0.0948046
0.0948163
0.0854845
0.0952019
0.095089
0.09507
0.0950252
0.0951508
0.0950422
0.0949772
0.0949209
0.0949132
0.0948567
0.0948307
0.094812
0.0948066
0.0948032
0.094806
0.0948062
0.0854852
0.0952023
0.0950901
0.0950714
0.0950504
0.0951803
0.0950544
0.094974
0.0948968
0.094865
0.0948434
0.0948263
0.0948116
0.0948082
0.0948085
0.094805
0.0948205
0.085485
0.0952034
0.0950855
0.0950673
0.0949993
0.0950132
0.0950582
0.0949965
0.0948996
0.0948909
0.0948537
0.0948566
0.094825
0.0948137
0.094802
0.0948138
0.0948087
0.0950792
0.0950578
0.0949824
0.0949942
0.0949868
0.0949846
0.0949092
0.0948823
0.0948267
0.0948208
0.0948133
0.0948131
0.0948051
0.0948038
0.0948236
0.0950763
0.0950561
0.0949641
0.094948
0.0949225
0.0948999
0.0949147
0.0949064
0.0948512
0.0949217
0.0949666
0.0948113
0.0948071
0.0948078
0.094839
0.0949455
0.0949206
0.0949328
0.0949122
0.0949201
0.0948574
0.09487
0.0948799
0.0948394
0.0948128
0.0948121
0.0948616
0.0854802
0.0952193
0.0854813
0.0952186
0.0950999
0.095067
0.0949769
0.0949428
0.0949137
0.0948839
0.0948564
0.0948359
0.0948193
0.0948125
0.0948065
0.0948048
0.0948044
0.0948049
0.0854823
0.0952164
0.0950982
0.0950657
0.094974
0.0949371
0.0949319
0.0949007
0.0948687
0.0948515
0.094831
0.0948198
0.0948107
0.0948063
0.094804
0.094803
0.0854835
0.0952166
0.0951014
0.0950751
0.0949911
0.0949711
0.0949581
0.0949145
0.0948779
0.094844
0.0948181
0.0948103
0.0948038
0.0948026
0.0948028
0.0948043
0.0854844
0.0952145
0.0950974
0.0950706
0.0949736
0.0949418
0.0950223
0.0949554
0.0949106
0.0948813
0.0948447
0.0948273
0.094813
0.0948069
0.0948024
0.0948017
0.094802
0.0948037
0.0854853
0.0952155
0.0950992
0.095076
0.0949867
0.0949634
0.0950329
0.0949686
0.0949095
0.0948581
0.0948153
0.0948081
0.0948
0.0948008
0.0948013
0.0948052
0.094814
0.0948191
0.0854856
0.0952149
0.0950951
0.0950708
0.094971
0.0949382
0.0950236
0.094958
0.0949119
0.0948711
0.0948432
0.0948368
0.0948168
0.0948088
0.0948021
0.0948005
0.094801
0.0948019
0.0854862
0.0952171
0.0950979
0.095079
0.0949952
0.0949874
0.0950074
0.0949561
0.0949122
0.0948632
0.0948316
0.0948154
0.0947985
0.0948029
0.0948011
0.094808
0.0948235
0.0948111
0.085486
0.0952179
0.0950917
0.0950695
0.0949667
0.0949349
0.094919
0.0948855
0.0949009
0.0948643
0.094844
0.0948319
0.0948181
0.0948098
0.094804
0.0948034
0.0948071
0.0948125
0.0950926
0.0950752
0.094977
0.0949613
0.0949392
0.0949233
0.0949034
0.0948556
0.0948359
0.0948249
0.0948065
0.0948152
0.0948024
0.0948046
0.094823
0.0948173
0.0949303
0.0948927
0.09487
0.0948539
0.0948375
0.0948494
0.0948433
0.0948178
0.0948132
0.094804
0.0948029
0.0948142
0.085484
0.0952546
0.0854847
0.0952534
0.0854856
0.0952506
0.0951187
0.095074
0.094986
0.0949341
0.0949089
0.094875
0.0948537
0.0948354
0.0948239
0.0948147
0.0948093
0.0948052
0.0948046
0.0948031
0.0854865
0.09525
0.0951209
0.0950787
0.0949951
0.0949478
0.0949173
0.0948799
0.0948566
0.0948345
0.0948219
0.094813
0.0948079
0.0948044
0.0948045
0.0948037
0.0854873
0.0952468
0.0951189
0.0950794
0.0949969
0.0949492
0.0949296
0.0948891
0.0948635
0.0948413
0.094827
0.0948158
0.0948095
0.0948048
0.0948039
0.0948022
0.0854882
0.0952477
0.0951228
0.0950856
0.0950116
0.0949747
0.09494
0.094893
0.0948654
0.0948383
0.0948227
0.0948129
0.0948072
0.0948039
0.0948042
0.0948034
0.0948083
0.0948101
0.0854888
0.0952449
0.0951186
0.0950844
0.0950053
0.0949702
0.0949356
0.0948918
0.0948643
0.0948406
0.0948271
0.0948166
0.09481
0.0948048
0.0948037
0.0948018
0.0948048
0.0948067
0.0854894
0.0952479
0.0951207
0.0950871
0.0950098
0.0949767
0.0949383
0.0948953
0.0948656
0.0948402
0.0948259
0.0948138
0.094807
0.0948039
0.0948041
0.0948029
0.094808
0.0948092
0.0854897
0.0952453
0.0951146
0.095083
0.0949975
0.0949562
0.0949293
0.0948909
0.0948643
0.0948441
0.0948308
0.0948193
0.0948132
0.0948055
0.0948037
0.0948021
0.094806
0.0948124
0.08549
0.0952509
0.0951153
0.0950843
0.094992
0.0949551
0.094923
0.0948958
0.0948669
0.0948445
0.0948266
0.0948128
0.094809
0.0948046
0.0948046
0.094803
0.0948078
0.0948092
0.0951099
0.0950815
0.0949834
0.0949432
0.0949104
0.0948834
0.0948636
0.0948484
0.0948381
0.0948252
0.0948246
0.0948051
0.0948052
0.0948022
0.0948091
0.0948235
0.0949416
0.0949056
0.0948879
0.0948647
0.0948503
0.0948322
0.0948108
0.0948159
0.0948074
0.0948066
0.0948048
0.0948102
0.0854951
0.0953445
0.0854956
0.0953424
0.0854963
0.095341
0.0952088
0.0951531
0.0950417
0.0949617
0.094922
0.094879
0.094853
0.0948331
0.0948193
0.094812
0.0948057
0.0948036
0.0948024
0.0948026
0.0854967
0.0953381
0.0952074
0.095153
0.0950431
0.0949629
0.0949281
0.0948838
0.0948576
0.0948376
0.0948234
0.0948147
0.0948075
0.0948043
0.0948025
0.094802
0.0854976
0.0953377
0.0952093
0.095158
0.09505
0.0949719
0.094936
0.0948881
0.0948598
0.0948358
0.0948196
0.0948116
0.0948048
0.0948029
0.0948019
0.0948025
0.0854978
0.0953346
0.0952061
0.0951557
0.0950479
0.0949682
0.0949459
0.0948944
0.094867
0.0948431
0.0948266
0.0948166
0.0948081
0.0948045
0.0948022
0.0948015
0.0948035
0.0948055
0.0854987
0.0953359
0.0952078
0.0951607
0.0950535
0.0949767
0.09495
0.0948981
0.0948668
0.0948396
0.0948202
0.0948118
0.0948037
0.0948025
0.0948015
0.0948028
0.0948066
0.0948091
0.0854986
0.0953346
0.0952037
0.095157
0.0950468
0.0949687
0.0949459
0.0948946
0.0948683
0.0948432
0.0948269
0.0948177
0.0948085
0.0948048
0.0948022
0.0948012
0.0948035
0.0948054
0.0854996
0.0953375
0.0952055
0.0951631
0.0950525
0.0949798
0.0949467
0.0948984
0.0948689
0.0948421
0.0948231
0.0948135
0.0948034
0.0948029
0.0948015
0.0948031
0.0948073
0.0948084
0.0854993
0.0953383
0.0951997
0.0951574
0.0950392
0.094965
0.094927
0.094884
0.0948634
0.0948407
0.0948256
0.0948172
0.0948079
0.0948049
0.0948023
0.094802
0.0948048
0.0948075
0.0855003
0.0953412
0.0951999
0.0951625
0.095042
0.0949736
0.0949313
0.0948932
0.0948663
0.0948421
0.0948241
0.0948152
0.0948043
0.0948042
0.0948019
0.0948029
0.0948066
0.0948089
0.0949618
0.0949152
0.09488
0.0948548
0.0948373
0.0948238
0.0948176
0.0948073
0.0948051
0.0948024
0.0948025
0.094806
0.0855065
0.0955106
0.0855067
0.0955088
0.085507
0.0955062
0.0855075
0.0955043
0.085508
0.0955012
0.0952729
0.095158
0.0950797
0.0949655
0.0949349
0.0948826
0.0948561
0.0948351
0.0948212
0.0948125
0.0948056
0.0948022
0.0948007
0.0948001
0.0855086
0.0954997
0.0952739
0.0951609
0.0950842
0.0949707
0.0949393
0.0948854
0.094858
0.0948358
0.0948212
0.0948121
0.0948052
0.0948019
0.0948008
0.0948003
0.0855091
0.0954966
0.0952727
0.0951624
0.0950864
0.0949727
0.094942
0.0948868
0.0948589
0.0948362
0.0948221
0.0948127
0.0948058
0.0948021
0.0948006
0.0947998
0.0855097
0.0954965
0.0952741
0.0951653
0.0950911
0.0949793
0.0949466
0.0948896
0.0948613
0.0948371
0.0948218
0.094812
0.094805
0.0948016
0.0948006
0.0948002
0.0948035
0.0948058
0.0855103
0.0954941
0.0952714
0.0951658
0.09509
0.0949791
0.0949456
0.094889
0.0948607
0.0948369
0.0948226
0.0948128
0.094806
0.0948021
0.0948006
0.0947997
0.0948027
0.0948054
0.0855108
0.0954962
0.0952715
0.0951675
0.0950904
0.0949813
0.0949466
0.0948914
0.0948629
0.0948386
0.094823
0.0948123
0.094805
0.0948015
0.0948005
0.0947999
0.0948032
0.0948055
0.0855112
0.0954945
0.0952672
0.0951668
0.0950864
0.0949778
0.0949431
0.09489
0.0948621
0.0948391
0.0948243
0.0948134
0.0948068
0.0948022
0.0948007
0.0947998
0.0948029
0.0948067
0.0855117
0.0954992
0.0952661
0.0951677
0.0950822
0.0949769
0.0949406
0.0948921
0.0948636
0.0948408
0.0948242
0.0948125
0.0948058
0.0948016
0.0948006
0.0947998
0.0948028
0.0948054
0.0855123
0.0954986
0.0952616
0.0951676
0.0950782
0.0949748
0.0949373
0.0948906
0.094863
0.0948418
0.094827
0.0948146
0.0948085
0.0948021
0.0948009
0.0947999
0.0948031
0.094808
0.0949732
0.0949337
0.0948915
0.0948633
0.0948432
0.0948262
0.0948128
0.094807
0.0948021
0.0948009
0.0948001
0.0948027
0.0855714
0.0961324
0.0855715
0.0961308
0.0855717
0.0961294
0.085572
0.0961276
0.0855724
0.0961266
0.0957878
0.095406
0.0952289
0.0950291
0.0949517
0.0948934
0.0948526
0.0948343
0.0948155
0.0948094
0.0948011
0.0947993
0.0947971
0.0947976
0.0855726
0.0961247
0.0957879
0.0954073
0.095231
0.0950309
0.0949543
0.0948952
0.0948543
0.0948356
0.0948166
0.0948101
0.0948016
0.0947995
0.0947972
0.0947976
0.085573
0.0961245
0.0957895
0.0954107
0.0952344
0.0950346
0.0949572
0.0948967
0.094855
0.0948354
0.0948157
0.0948094
0.094801
0.0947992
0.0947971
0.0947977
0.0855732
0.096123
0.0957881
0.095411
0.0952348
0.0950349
0.0949596
0.0948983
0.0948569
0.0948371
0.0948173
0.0948105
0.0948018
0.0947996
0.0947972
0.0947975
0.0947995
0.0948027
0.0855737
0.0961243
0.0957888
0.0954144
0.0952369
0.0950384
0.0949611
0.0948997
0.094857
0.0948368
0.0948161
0.0948095
0.0948008
0.0947991
0.094797
0.0947977
0.0948
0.0948034
0.0855737
0.0961244
0.0957853
0.0954132
0.0952338
0.0950365
0.0949599
0.094899
0.0948575
0.0948378
0.0948175
0.0948107
0.0948017
0.0947996
0.0947971
0.0947975
0.0947995
0.0948028
0.0855742
0.096127
0.0957847
0.0954167
0.0952346
0.0950401
0.0949606
0.0949009
0.0948579
0.0948382
0.0948167
0.0948099
0.0948007
0.0947991
0.094797
0.0947978
0.0948001
0.0948034
0.0855742
0.0961288
0.0957789
0.0954141
0.0952277
0.0950359
0.0949554
0.0948979
0.0948563
0.0948379
0.094817
0.0948106
0.0948016
0.0947995
0.0947971
0.0947976
0.0947997
0.0948032
0.0855748
0.0961321
0.0957767
0.0954175
0.0952274
0.0950391
0.0949563
0.0949009
0.0948572
0.0948391
0.0948168
0.0948103
0.0948008
0.0947992
0.094797
0.0947979
0.0947999
0.0948036
0.095035
0.0949505
0.0948978
0.0948542
0.0948379
0.0948163
0.0948105
0.0948014
0.0947994
0.0947971
0.0947978
0.0947999
0.0855748
0.0967722
0.0855749
0.0967704
0.0855751
0.0967682
0.0855754
0.0967664
0.0855758
0.0967644
0.0960449
0.0954219
0.0953388
0.095113
0.094996
0.094933
0.0948685
0.0948484
0.0948206
0.0948121
0.0948008
0.0947975
0.0947947
0.0947949
0.0855763
0.0967631
0.0960465
0.0954247
0.0953418
0.095116
0.0949983
0.0949346
0.0948696
0.094849
0.0948208
0.0948121
0.0948007
0.0947975
0.0947947
0.094795
0.0855767
0.0967614
0.0960473
0.0954272
0.095344
0.0951181
0.0949997
0.0949352
0.0948699
0.094849
0.0948209
0.0948122
0.0948008
0.0947975
0.0947947
0.0947949
0.0855771
0.0967612
0.0960482
0.09543
0.0953463
0.0951215
0.095002
0.094937
0.0948712
0.0948498
0.0948211
0.094812
0.0948006
0.0947974
0.0947947
0.094795
0.0947978
0.0948024
0.0855776
0.0967604
0.0960474
0.0954322
0.0953469
0.095123
0.0950022
0.0949373
0.0948713
0.0948498
0.0948212
0.0948122
0.0948008
0.0947975
0.0947948
0.0947949
0.0947976
0.0948024
0.0855781
0.096762
0.0960463
0.0954341
0.0953467
0.0951251
0.0950032
0.094939
0.0948727
0.0948509
0.0948214
0.0948121
0.0948006
0.0947973
0.0947947
0.094795
0.0947977
0.0948023
0.0855786
0.0967623
0.0960439
0.0954361
0.0953459
0.0951259
0.0950029
0.0949396
0.0948729
0.0948512
0.0948216
0.0948123
0.094801
0.0947975
0.0947948
0.094795
0.0947977
0.0948026
0.0855791
0.0967657
0.0960407
0.0954374
0.0953433
0.0951266
0.0950024
0.0949413
0.0948739
0.0948524
0.0948219
0.0948123
0.0948008
0.0947974
0.0947948
0.094795
0.0947976
0.0948022
0.0855798
0.0967671
0.0960375
0.0954401
0.0953423
0.0951281
0.0950024
0.0949424
0.0948742
0.094853
0.0948223
0.0948126
0.0948012
0.0947976
0.0947949
0.0947951
0.0947977
0.0948028
0.0951286
0.0950014
0.0949436
0.0948745
0.0948538
0.0948223
0.0948125
0.0948011
0.0947975
0.0947949
0.0947952
0.0947975
0.0859536
0.100893
0.0859536
0.100893
0.0859537
0.100894
0.0859539
0.100894
0.085954
0.100896
0.0989522
0.0962694
0.0954197
0.0952042
0.0949507
0.0949176
0.0948461
0.0948309
0.0948108
0.0948013
0.0947955
0.0947914
0.0947901
0.0947908
0.0859542
0.100898
0.0989535
0.0962718
0.0954211
0.0952056
0.0949518
0.0949182
0.0948465
0.0948312
0.094811
0.0948015
0.0947956
0.0947915
0.0947901
0.0947908
0.0859543
0.1009
0.0989551
0.0962747
0.0954226
0.0952074
0.0949528
0.0949188
0.0948468
0.0948314
0.0948109
0.0948013
0.0947955
0.0947914
0.0947901
0.0947909
0.0859544
0.100903
0.098955
0.0962768
0.0954233
0.0952085
0.0949537
0.0949196
0.0948474
0.0948318
0.0948112
0.0948015
0.0947956
0.0947915
0.0947902
0.0947909
0.0947912
0.0947978
0.0859546
0.100906
0.0989554
0.0962798
0.0954241
0.0952104
0.0949544
0.0949207
0.0948478
0.0948319
0.094811
0.0948013
0.0947954
0.0947915
0.0947902
0.094791
0.0947914
0.094798
0.0859547
0.100909
0.0989531
0.0962813
0.095423
0.095211
0.0949545
0.0949213
0.0948483
0.0948322
0.0948112
0.0948015
0.0947956
0.0947916
0.0947903
0.094791
0.0947914
0.0947979
0.0859549
0.100913
0.0989518
0.0962843
0.0954228
0.095213
0.0949551
0.0949227
0.0948488
0.0948325
0.0948111
0.0948014
0.0947955
0.0947916
0.0947903
0.0947911
0.0947915
0.0947981
0.085955
0.100917
0.0989473
0.0962852
0.09542
0.0952129
0.0949545
0.094923
0.0948488
0.0948326
0.0948111
0.0948015
0.0947956
0.0947918
0.0947904
0.0947912
0.0947916
0.0947981
0.0859553
0.100923
0.0989446
0.0962886
0.0954191
0.0952152
0.0949552
0.0949247
0.0948493
0.094833
0.0948111
0.0948015
0.0947955
0.0947918
0.0947905
0.0947914
0.0947917
0.0947982
0.0952156
0.0949545
0.0949247
0.0948488
0.0948328
0.0948109
0.0948016
0.0947956
0.094792
0.0947907
0.0947915
0.0947918
0.0859693
0.0998902
0.0859695
0.0998904
0.099129
0.0986828
0.0961411
0.0958327
0.0951915
0.0859697
0.0998931
0.0991326
0.0986855
0.0961433
0.0958334
0.0951922
0.0950986
0.0949275
0.0948856
0.08597
0.099896
0.0991366
0.0986891
0.0961458
0.0958348
0.0951932
0.0950986
0.0949277
0.0948853
0.094838
0.0948196
0.094805
0.0947993
0.0859703
0.0998998
0.0991403
0.0986933
0.0961486
0.0958363
0.0951942
0.0950985
0.0949278
0.0948849
0.0948378
0.0948194
0.094805
0.0947992
0.0947943
0.094798
0.0859705
0.0999034
0.0991444
0.098698
0.0961515
0.0958385
0.0951957
0.095099
0.0949283
0.0948847
0.0948377
0.0948191
0.0948049
0.0947991
0.0947943
0.0947979
0.0947959
0.0859708
0.0999073
0.0991487
0.0987028
0.0961544
0.0958404
0.0951969
0.0950991
0.0949286
0.0948842
0.0948375
0.0948188
0.0948048
0.094799
0.0947944
0.0947978
0.0947959
0.0948124
0.085971
0.0999109
0.099152
0.0987076
0.0961571
0.0958431
0.0951986
0.0950999
0.0949294
0.0948841
0.0948374
0.0948186
0.0948047
0.0947989
0.0947944
0.0947978
0.0947959
0.0948122
0.0859713
0.0999147
0.0991555
0.0987124
0.0961596
0.0958453
0.0951998
0.0951004
0.0949297
0.0948838
0.0948372
0.0948183
0.0948047
0.0947988
0.0947945
0.0947977
0.094796
0.094812
0.094812
0.0859715
0.0999179
0.0991571
0.0987166
0.0961613
0.095848
0.0952015
0.0951014
0.0949306
0.0948838
0.0948371
0.0948181
0.0948047
0.0947987
0.0947945
0.0947976
0.094796
0.0948118
0.0948119
0.0859717
0.0999219
0.0991597
0.0987217
0.0961635
0.0958509
0.0952031
0.0951018
0.0949307
0.0948835
0.0948369
0.0948179
0.0948047
0.0947987
0.0947947
0.0947976
0.0947961
0.0948117
0.0948121
0.0859719
0.0999249
0.0991599
0.0987258
0.0961643
0.095854
0.095205
0.0951024
0.0949311
0.0948835
0.0948368
0.0948178
0.0948046
0.0947987
0.0947948
0.0947976
0.0947962
0.0948113
0.0948119
0.0859722
0.0949309
0.0948831
0.0948365
0.0948176
0.0948046
0.0947987
0.094795
0.0947977
0.0947963
0.0948112
0.094883
0.0948363
0.0948174
0.0948046
0.0947988
0.0947952
0.0947977
0.0947965
0.0869127
0.10246
0.0869127
0.102456
0.110915
0.101189
0.104404
0.0996646
0.100767
0.0869128
0.102454
0.110913
0.101184
0.104398
0.0996558
0.100758
0.0974169
0.0983858
0.0960459
0.0869129
0.102452
0.110911
0.101178
0.104392
0.0996463
0.100747
0.0973964
0.0983612
0.0960324
0.0964705
0.0955899
0.0958198
0.0954754
0.0869131
0.10245
0.110909
0.101171
0.104385
0.0996358
0.100735
0.0973742
0.0983344
0.0960177
0.0964515
0.0955829
0.095809
0.0954721
0.0956294
0.0954454
0.0869133
0.102448
0.110908
0.101165
0.104379
0.0996251
0.100722
0.09735
0.0983026
0.0960005
0.0964279
0.0955747
0.0957954
0.0954683
0.0956204
0.0954428
0.0956406
0.0869135
0.102446
0.110907
0.101159
0.104373
0.0996147
0.100709
0.0973263
0.0982713
0.0959839
0.0964056
0.0955672
0.095783
0.095465
0.0956118
0.0954406
0.0956318
0.095437
0.0869138
0.102444
0.110907
0.101155
0.104367
0.0996056
0.100697
0.0973029
0.0982376
0.0959665
0.0963805
0.0955593
0.0957689
0.0954617
0.0956025
0.0954385
0.0956229
0.0954339
0.0869141
0.102443
0.110907
0.101151
0.104363
0.0995967
0.100685
0.0972803
0.0982051
0.0959502
0.0963576
0.0955523
0.0957565
0.0954588
0.0955938
0.0954368
0.0956138
0.0954312
0.0958309
0.0869144
0.102442
0.110908
0.101149
0.10436
0.0995906
0.100675
0.0972606
0.098174
0.0959352
0.0963348
0.095546
0.0957442
0.0954565
0.0955856
0.0954354
0.095606
0.0954288
0.09582
0.0869147
0.102442
0.11091
0.101146
0.104357
0.0995831
0.100663
0.0972376
0.0981398
0.0959196
0.0963117
0.0955397
0.0957323
0.0954544
0.095577
0.0954343
0.0955973
0.0954268
0.0958092
0.0869151
0.102442
0.110912
0.101147
0.104356
0.0995795
0.100653
0.0972193
0.0981107
0.0959075
0.0962924
0.0955352
0.0957222
0.0954533
0.0955701
0.0954335
0.0955905
0.0954248
0.0957998
0.0869156
0.0980723
0.0958921
0.0962686
0.0955294
0.0957096
0.0954524
0.0955618
0.0954331
0.0955824
0.0954228
0.095881
0.096251
0.0955258
0.0957
0.0954524
0.095556
0.0954331
0.0955765
0.0991333
0.0998723
0.0976378
0.0961666
0.0798444
0.0877306
0.0638754
0.100383
0.095916
0.0952601
0.0949663
0.0965328
0.050642
0.057808
0.0985392
0.095829
0.0670561
0.101027
0.10046
0.100936
0.082409
0.0794667
0.0888684
0.0475038
0.0971468
0.0990499
0.0960584
0.0497044
0.0805814
0.0830075
0.0431069
0.0890458
0.0985432
0.0898209
0.0423861
0.0809095
0.0795909
0.0834056
0.0972077
0.0865352
0.0741029
0.0847091
0.0824331
0.0952886
0.0858131
0.0537998
0.0787874
0.093694
0.0946434
0.0813211
0.0592081
0.0904964
0.0437154
0.100112
0.0856783
0.0946021
0.0814196
0.0804277
0.0944828
0.073618
0.081259
0.0845445
0.0502484
0.0421971
0.0710596
0.0870303
0.0466951
0.0456036