/*--------------------------------*- C++ -*----------------------------------*\
  =========                 |
  \\      /  F ield         | OpenFOAM: The Open Source CFD Toolbox
   \\    /   O peration     | Website:  https://openfoam.org
    \\  /    A nd           | Version:  10
     \\/     M anipulation  |
\*---------------------------------------------------------------------------*/
FoamFile
{
    format      ascii;
    class       volScalarField;
    location    "0.1";
    object      k_0;
}
// * * * * * * * * * * * * * * * * * * * * * * * * * * * * * * * * * * * * * //

dimensions      [0 2 -2 0 0 0 0];

internalField   nonuniform List<scalar> 
114955
(
0.0949685
0.0948957
0.0948671
0.0948665
0.0948543
0.0948597
0.0948501
0.09493
0.0948973
0.0948702
0.0948669
0.0948662
0.0948558
0.0948492
0.0949791
0.0949049
0.0948591
0.0948679
0.0948498
0.0948486
0.0948456
0.0949386
0.0949031
0.0948643
0.0949332
0.0950475
0.094862
0.0948554
0.0953079
0.0951776
0.0951674
0.095305
0.0949826
0.094926
0.0952588
0.0950575
0.0949428
0.0948838
0.0949583
0.0948792
0.0948557
0.0955742
0.0957512
0.0951105
0.0950818
0.0949555
0.0949002
0.0948748
0.0948912
0.0948991
0.0948651
0.0951527
0.0950259
0.0949474
0.0952652
0.0950656
0.0949239
0.0949395
0.0951225
0.0948826
0.0949065
0.0952253
0.0949844
0.0950149
0.0952748
0.0953919
0.095138
0.0950459
0.0949503
0.0950427
0.0952502
0.0957028
0.095404
0.0949032
0.0948987
0.0949306
0.0951646
0.0955878
0.0953452
0.0949091
0.0948669
0.0949247
0.0951678
0.0952017
0.0952428
0.0953637
0.096085
0.0954192
0.0949453
0.0949625
0.0949083
0.0948733
0.0948492
0.0948431
0.0948426
0.0959737
0.0954554
0.0953987
0.0949959
0.0950143
0.0952128
0.0949137
0.094864
0.094858
0.096702
0.0959391
0.0953818
0.0953062
0.0953496
0.0955214
0.095771
0.0954284
0.0949385
0.0948656
0.0963053
0.096348
0.0958383
0.0955243
0.0950765
0.0950381
0.095334
0.0955167
0.0952824
0.0949351
0.0957114
0.0962926
0.096289
0.0950465
0.0950901
0.0949726
0.0950255
0.0955703
0.0951062
0.0952156
0.095474
0.0959902
0.0958766
0.0955642
0.0951421
0.0950538
0.0954296
0.0956583
0.0953595
0.0950284
0.0951949
0.0951678
0.0951
0.0955734
0.0957954
0.0951612
0.0967966
0.101645
0.0977766
0.0972171
0.0951238
0.0951598
0.0952573
0.0958098
0.095923
0.0965658
0.100376
0.0988899
0.0959183
0.0960685
0.0950357
0.0949949
0.0951441
0.0956383
0.0972384
0.100538
0.0992333
0.0965634
0.0951023
0.0949826
0.094939
0.0952851
0.0953712
0.0962343
0.100324
0.0992664
0.0964209
0.098379
0.096455
0.0956543
0.0956779
0.095099
0.0951267
0.0951975
0.094901
0.0948658
0.0948552
0.0978526
0.0979536
0.0961179
0.0960925
0.0960133
0.0956439
0.0959265
0.0962879
0.0955813
0.0949744
0.0948868
0.097296
0.0962727
0.0961843
0.0964007
0.102049
0.0984855
0.10134
0.103016
0.0976691
0.0956665
0.0950278
0.0978379
0.0986283
0.0981779
0.10153
0.0988643
0.0973101
0.0963964
0.100076
0.101283
0.097308
0.0955831
0.0972226
0.10254
0.1011
0.0961659
0.0965277
0.095412
0.0974094
0.0996554
0.095845
0.0952322
0.0959313
0.0989719
0.102995
0.0990603
0.0985198
0.0952435
0.095668
0.0989062
0.0972439
0.0981141
0.0952909
0.0956948
0.0962697
0.10209
0.10059
0.0960012
0.0958644
0.0973852
0.0961705
0.0961998
0.0951845
0.095136
0.0953585
0.0975385
0.101995
0.0972772
0.0970576
0.096927
0.0995346
0.096156
0.0952195
0.0955224
0.0975324
0.100151
0.0993337
0.098288
0.0993571
0.0957715
0.0951699
0.0949459
0.0951958
0.0964446
0.0987013
0.0990779
0.096822
0.0989799
0.0952293
0.0960097
0.0954385
0.0949688
0.0949599
0.0948966
0.0948606
0.0948544
0.0948486
0.0948479
0.0986039
0.0964888
0.0956977
0.0955204
0.0950832
0.0951133
0.0950007
0.094878
0.0948659
0.0948511
0.102028
0.102203
0.102277
0.100053
0.101282
0.0962281
0.095925
0.0954964
0.0951669
0.0949076
0.0948719
0.0998399
0.101713
0.105101
0.100828
0.10182
0.0988206
0.101485
0.0968412
0.0955318
0.0952407
0.0949176
0.100235
0.100369
0.102207
0.0990058
0.0988117
0.097419
0.0986311
0.101128
0.100907
0.0966768
0.0952568
0.099233
0.0999332
0.102362
0.101511
0.0969025
0.0992997
0.10261
0.102344
0.105782
0.100204
0.0969538
0.100498
0.100925
0.102465
0.104349
0.0967876
0.0956283
0.0955312
0.0977297
0.0983957
0.10103
0.100936
0.0971244
0.10127
0.102744
0.101924
0.096496
0.0951499
0.0959128
0.0967917
0.0969742
0.0982482
0.0957954
0.0990908
0.101179
0.100062
0.104308
0.0955395
0.0959727
0.0987381
0.0988717
0.0967003
0.0952002
0.0954034
0.0960827
0.101362
0.101931
0.0998125
0.0995638
0.100215
0.0986626
0.0980278
0.095143
0.095628
0.0974444
0.0996335
0.0997112
0.0990416
0.0982279
0.0981762
0.0998026
0.0952042
0.0961349
0.0974462
0.0983113
0.0973791
0.0953282
0.096863
0.0956753
0.0962962
0.0958188
0.0953983
0.0951556
0.0949704
0.0949715
0.0949044
0.0948713
0.0948545
0.0948508
0.0980835
0.097991
0.0960357
0.0960978
0.0961922
0.0953189
0.0954633
0.0952019
0.0949329
0.0948666
0.0948524
0.101876
0.101454
0.10617
0.102803
0.103176
0.0987584
0.102285
0.0976868
0.095309
0.0949676
0.0948903
0.0994876
0.101831
0.111313
0.10647
0.0978541
0.0981665
0.104382
0.101659
0.0964642
0.0951856
0.0951337
0.0970708
0.099168
0.1044
0.100915
0.103054
0.106855
0.10502
0.100762
0.0991127
0.0957243
0.0956516
0.0988009
0.100905
0.106277
0.100027
0.100809
0.101466
0.102125
0.0998356
0.100371
0.0997976
0.0959398
0.100335
0.100313
0.102702
0.102783
0.0970206
0.0979434
0.0990838
0.10447
0.0998147
0.0976423
0.0976271
0.100327
0.102056
0.106892
0.100083
0.0972051
0.0974893
0.0982112
0.0997783
0.0987949
0.097273
0.0964151
0.100487
0.104161
0.100194
0.0979021
0.0984636
0.0964116
0.0996501
0.112888
0.0978803
0.0955488
0.0981296
0.100209
0.100544
0.102421
0.0974211
0.093328
0.0939865
0.0858196
0.0950453
0.100547
0.103636
0.100907
0.0960332
0.0824167
0.0441919
0.0964025
0.0981224
0.0964665
0.0949245
0.051978
0.095658
0.0963633
0.0959269
0.0954622
0.0952511
0.0950096
0.0949313
0.0948943
0.0948682
0.0948547
0.0948519
0.0960182
0.0980221
0.0978862
0.0959316
0.0958884
0.0954971
0.0954799
0.0956728
0.0952793
0.0949568
0.0948883
0.0948604
0.0967283
0.102074
0.100112
0.103031
0.104189
0.0998981
0.102335
0.102074
0.097388
0.0953185
0.0949893
0.0949243
0.0955329
0.0999043
0.100935
0.107027
0.10278
0.112414
0.0984265
0.106525
0.101268
0.0962089
0.0951999
0.0951394
0.0953884
0.0976603
0.0961465
0.0968643
0.0834811
0.0991289
0.104257
0.0990812
0.101589
0.0987658
0.096023
0.0959973
0.0991075
0.0963708
0.106417
0.0974142
0.0537817
0.0867693
0.0978047
0.101274
0.104377
0.0990271
0.0965854
0.100547
0.102154
0.0981191
0.106029
0.0829956
0.0476969
0.0802256
0.104907
0.0983574
0.101432
0.0973968
0.100145
0.103611
0.105188
0.0995126
0.0800545
0.075149
0.096859
0.101179
0.0981181
0.0964301
0.100719
0.108252
0.100133
0.0969694
0.0895436
0.0483842
0.0644762
0.101067
0.0955831
0.0982433
0.10005
0.102732
0.101702
0.0990801
0.0795031
0.0479977
0.100569
0.106827
0.102587
0.0943898
0.0711632
0.0959646
0.0970904
0.0986549
0.0952221
0.0951975
0.0958249
0.0954619
0.0952159
0.0953108
0.0949418
0.0948663
0.0948502
0.0948471
0.0948476
0.0951931
0.0953079
0.0963763
0.0987794
0.0964121
0.0960723
0.0962866
0.0964982
0.0954187
0.0949995
0.0948842
0.0948545
0.0948472
0.0954087
0.0969461
0.10217
0.102631
0.100676
0.102297
0.105824
0.103864
0.0971385
0.0953726
0.0949521
0.0948743
0.0948563
0.0956157
0.0968907
0.100265
0.10149
0.10234
0.100328
0.101476
0.102521
0.101002
0.0967252
0.0951862
0.0949091
0.094879
0.095407
0.0962935
0.100655
0.101867
0.11209
0.0980257
0.107591
0.0989784
0.103564
0.101166
0.0961017
0.0951915
0.0949791
0.0955539
0.0966512
0.0997039
0.101869
0.098533
0.0984717
0.0983344
0.10359
0.0995242
0.104538
0.100414
0.0961024
0.0958198
0.0953296
0.096523
0.100674
0.100798
0.102204
0.1059
0.0978871
0.0972437
0.103642
0.101595
0.103663
0.0989559
0.0955717
0.095174
0.0951741
0.0959102
0.0974135
0.101428
0.113802
0.103133
0.0982748
0.0983607
0.105696
0.101056
0.0994091
0.0972055
0.0951675
0.095233
0.0953161
0.0957402
0.0988507
0.101059
0.101101
0.101985
0.0965932
0.0973523
0.108772
0.0987304
0.0951937
0.0954627
0.0962914
0.10151
0.109146
0.100396
0.0969373
0.0950838
0.0858671
0.0978921
0.0984593
0.0988165
0.0927851
0.0951119
0.0953056
0.0952013
0.0950953
0.0950153
0.0949622
0.0948915
0.0948664
0.0948581
0.0948514
0.0948516
0.0951734
0.0951779
0.0951983
0.0952216
0.0967318
0.0961272
0.0955423
0.0957987
0.095051
0.0948996
0.0948576
0.0948524
0.0948487
0.0951943
0.0952824
0.0964009
0.0988658
0.0965209
0.0962639
0.0970463
0.0974177
0.0956455
0.095055
0.0949197
0.0948683
0.0948651
0.0953569
0.0963287
0.0999648
0.101631
0.100417
0.10266
0.105022
0.104178
0.0963868
0.0950959
0.094879
0.094876
0.0948807
0.0953015
0.0959063
0.099682
0.100664
0.100444
0.103334
0.0984941
0.0990251
0.101956
0.0966187
0.0951507
0.0949066
0.0949108
0.0953465
0.0963153
0.0996156
0.101324
0.101155
0.104067
0.0964878
0.0969309
0.100933
0.101749
0.0960267
0.0951263
0.0949502
0.0951842
0.0951933
0.0960704
0.0976431
0.101675
0.109136
0.0965404
0.0967719
0.0969688
0.0991491
0.10045
0.0960014
0.0954528
0.0951773
0.0952368
0.0952897
0.0957425
0.0994487
0.101877
0.100359
0.100278
0.0954801
0.0962965
0.0965707
0.0974698
0.0964576
0.0951253
0.0950934
0.0950416
0.0952059
0.0956377
0.0966088
0.102164
0.104885
0.0971534
0.0957626
0.0966925
0.100445
0.0951273
0.0951416
0.0952745
0.097077
0.100039
0.0975878
0.0965192
0.0998118
0.098314
0.0977323
0.097384
0.0999633
0.0966394
0.0989639
0.0950348
0.0950085
0.0950955
0.0950562
0.094974
0.0949656
0.0948966
0.0948704
0.0948573
0.0948523
0.0948505
0.0951425
0.0951244
0.0951198
0.0952853
0.0951685
0.0950819
0.0950212
0.0949444
0.0948879
0.0948693
0.0948609
0.0948519
0.09485
0.0951689
0.0951784
0.0951869
0.0951841
0.0967878
0.0961543
0.0955877
0.0957757
0.0950832
0.094913
0.094867
0.0948555
0.0948508
0.0856261
0.095251
0.0951596
0.0951848
0.0958055
0.0967294
0.0963887
0.096113
0.0963225
0.0961849
0.0951675
0.0949709
0.0949065
0.0948696
0.0948609
0.0856268
0.0952546
0.0951543
0.0951536
0.0955054
0.0971042
0.0957229
0.0957555
0.0954577
0.0953224
0.0951183
0.0950734
0.0949026
0.0948833
0.0948863
0.0856276
0.0952462
0.0951496
0.0951713
0.0957982
0.0967508
0.095925
0.0959792
0.0954224
0.0951059
0.0957122
0.0955875
0.0950676
0.0949415
0.0949281
0.0951713
0.0951972
0.0952929
0.095593
0.097178
0.0966462
0.0952775
0.0951135
0.0950205
0.0952932
0.0953112
0.0950613
0.0950209
0.095126
0.0951077
0.0950776
0.0952841
0.0957641
0.0961673
0.0955637
0.0952637
0.0950884
0.095207
0.0953814
0.0952458
0.094954
0.0951381
0.0951303
0.0950659
0.0950841
0.0950915
0.0951173
0.09561
0.0957748
0.0952351
0.0961349
0.101373
0.0972607
0.0956804
0.095051
0.0950884
0.0952733
0.0956925
0.0961241
0.0964163
0.0996642
0.0976502
0.0961417
0.0961493
0.0959641
0.098705
0.0981739
0.0957379
0.0950312
0.0950407
0.0950076
0.0949709
0.0949277
0.0948976
0.0948683
0.0948612
0.0948545
0.0948525
0.0948525
0.0948535
0.0951377
0.0951088
0.0950181
0.0950037
0.0950953
0.0950543
0.0949669
0.0949612
0.0948984
0.0948747
0.0948587
0.0948536
0.0948498
0.0948512
0.0856193
0.0952565
0.095145
0.0951322
0.0950946
0.0952917
0.0952215
0.095115
0.0950167
0.0949549
0.0948856
0.0948647
0.0948566
0.0948501
0.0948515
0.0856206
0.0952689
0.0951561
0.0951639
0.0950633
0.0950897
0.0959425
0.0955244
0.0952183
0.095243
0.0949733
0.0948943
0.0948641
0.094855
0.0948483
0.0856221
0.0952617
0.0951503
0.0951432
0.0950652
0.0950326
0.0959648
0.0956407
0.095216
0.0949885
0.0948947
0.0948714
0.0948576
0.094848
0.0948501
0.085622
0.0952688
0.0951527
0.0951623
0.0950588
0.0950412
0.0960051
0.0956604
0.0951247
0.0949896
0.0949364
0.0950339
0.0949058
0.0948661
0.0948472
0.0856227
0.095256
0.0951381
0.0951261
0.0950828
0.0953444
0.0955511
0.0954209
0.09518
0.0950036
0.0949395
0.0948725
0.094898
0.0948686
0.0948624
0.095133
0.0951191
0.0950131
0.095012
0.0950081
0.0950187
0.0952873
0.0951044
0.0949521
0.0949825
0.0950413
0.0948747
0.0948737
0.0951239
0.0951054
0.0950194
0.0950646
0.0950699
0.0951835
0.0952164
0.0950073
0.0950216
0.0951055
0.095188
0.095119
0.0949452
0.0949861
0.0949475
0.0949227
0.094913
0.0950025
0.095394
0.0954302
0.0953109
0.0949002
0.0948917
0.0950829
0.095467
0.0953819
0.0948933
0.0950132
0.0949815
0.0949776
0.0949506
0.09492
0.0949034
0.0948805
0.0948678
0.0948596
0.0948549
0.0948538
0.0948522
0.0856174
0.0952563
0.0951373
0.0951061
0.0950388
0.0950333
0.0949959
0.0949576
0.0949239
0.0948923
0.0948714
0.0948627
0.0948572
0.0948534
0.0948534
0.094853
0.0856188
0.0952564
0.0951379
0.0951094
0.0950365
0.0950233
0.0951021
0.0950367
0.0949821
0.0949583
0.094901
0.0948753
0.0948605
0.094854
0.0948519
0.0948511
0.0856204
0.0952553
0.095144
0.0951223
0.0951032
0.0952183
0.0951329
0.0950357
0.0949676
0.094924
0.0948788
0.0948681
0.0948599
0.0948545
0.0948544
0.0948537
0.0948653
0.0856212
0.0952544
0.0951396
0.0951197
0.0950742
0.0951969
0.0950888
0.0950245
0.0949687
0.094961
0.0949051
0.0948795
0.094861
0.0948558
0.0948524
0.0948552
0.0948553
0.0856218
0.0952548
0.0951406
0.0951211
0.0950992
0.095226
0.0951009
0.0950214
0.094945
0.0949134
0.094892
0.094875
0.0948607
0.0948574
0.0948576
0.0948541
0.0948695
0.0856217
0.095256
0.0951361
0.095117
0.0950483
0.095061
0.0951046
0.0950438
0.0949478
0.0949391
0.0949023
0.0949051
0.0948739
0.0948628
0.0948512
0.0948628
0.0948578
0.0951298
0.0951076
0.0950316
0.0950424
0.0950347
0.0950319
0.0949571
0.0949306
0.0948756
0.0948696
0.0948624
0.0948622
0.0948543
0.094853
0.0948725
0.095127
0.0951058
0.0950133
0.0949968
0.0949709
0.0949483
0.0949625
0.0949546
0.0948999
0.0949696
0.0950143
0.0948603
0.094856
0.0948569
0.0948874
0.0949943
0.0949693
0.094981
0.0949605
0.0949681
0.0949062
0.0949191
0.0949274
0.094888
0.0948617
0.094861
0.0949099
0.0856169
0.0952716
0.085618
0.0952709
0.0951503
0.0951164
0.0950259
0.0949914
0.0949623
0.0949325
0.0949052
0.0948848
0.0948683
0.0948616
0.0948557
0.094854
0.0948536
0.094854
0.085619
0.0952688
0.0951487
0.0951153
0.0950231
0.0949858
0.0949802
0.0949491
0.0949171
0.0949002
0.0948799
0.0948688
0.0948598
0.0948555
0.0948532
0.0948522
0.0856202
0.095269
0.0951518
0.0951245
0.09504
0.0950194
0.095006
0.0949627
0.0949263
0.0948927
0.0948671
0.0948594
0.094853
0.0948518
0.094852
0.0948535
0.085621
0.0952669
0.0951479
0.0951201
0.0950227
0.0949903
0.0950692
0.0950029
0.0949584
0.0949296
0.0948934
0.0948762
0.094862
0.094856
0.0948516
0.094851
0.0948512
0.0948529
0.0856219
0.0952679
0.0951496
0.0951255
0.0950356
0.0950117
0.0950798
0.0950159
0.0949572
0.0949065
0.0948643
0.0948572
0.0948493
0.09485
0.0948505
0.0948543
0.0948631
0.0948681
0.0856222
0.0952673
0.0951456
0.0951203
0.0950201
0.0949868
0.0950705
0.0950054
0.0949596
0.0949194
0.0948918
0.0948856
0.0948658
0.0948579
0.0948513
0.0948497
0.0948502
0.0948511
0.0856228
0.0952695
0.0951483
0.0951284
0.0950441
0.0950356
0.095055
0.0950037
0.09496
0.0949115
0.0948803
0.0948644
0.0948477
0.0948521
0.0948504
0.0948571
0.0948724
0.0948601
0.0856226
0.0952703
0.0951422
0.0951191
0.0950159
0.0949836
0.0949673
0.094934
0.0949488
0.0949127
0.0948925
0.0948807
0.094867
0.0948589
0.0948531
0.0948525
0.0948562
0.0948615
0.095143
0.0951247
0.095026
0.0950098
0.0949876
0.0949715
0.0949516
0.0949041
0.0948845
0.0948738
0.0948556
0.0948643
0.0948516
0.0948537
0.0948719
0.0948662
0.0949792
0.0949415
0.0949188
0.0949026
0.0948863
0.094898
0.0948919
0.0948669
0.0948622
0.0948532
0.0948521
0.0948631
0.0856207
0.0953065
0.0856214
0.0953054
0.0856222
0.0953026
0.095169
0.0951235
0.0950351
0.094983
0.0949575
0.0949237
0.0949024
0.0948843
0.0948729
0.0948637
0.0948584
0.0948544
0.0948538
0.0948523
0.0856231
0.095302
0.0951712
0.0951282
0.0950441
0.0949965
0.0949659
0.0949286
0.0949053
0.0948834
0.0948709
0.0948621
0.094857
0.0948536
0.0948537
0.0948529
0.0856239
0.0952989
0.0951693
0.0951289
0.0950458
0.0949979
0.0949779
0.0949376
0.094912
0.0948901
0.0948759
0.0948649
0.0948586
0.094854
0.0948531
0.0948514
0.0856248
0.0952998
0.0951731
0.0951351
0.0950604
0.0950231
0.0949882
0.0949415
0.094914
0.0948871
0.0948716
0.094862
0.0948563
0.0948531
0.0948533
0.0948525
0.0948574
0.0948592
0.0856254
0.0952971
0.0951689
0.0951339
0.0950542
0.0950187
0.0949839
0.0949404
0.0949129
0.0948894
0.094876
0.0948656
0.094859
0.094854
0.0948528
0.094851
0.094854
0.0948558
0.0856259
0.0953
0.095171
0.0951366
0.0950587
0.0950251
0.0949866
0.0949438
0.0949142
0.0948891
0.0948749
0.0948629
0.0948561
0.0948531
0.0948532
0.0948521
0.0948571
0.0948583
0.0856263
0.0952975
0.095165
0.0951326
0.0950465
0.0950048
0.0949776
0.0949395
0.0949129
0.0948929
0.0948796
0.0948683
0.0948622
0.0948546
0.0948528
0.0948513
0.0948551
0.0948615
0.0856266
0.095303
0.0951656
0.0951338
0.095041
0.0950037
0.0949714
0.0949443
0.0949155
0.0948933
0.0948756
0.0948618
0.0948581
0.0948538
0.0948538
0.0948521
0.0948569
0.0948583
0.0951602
0.0951311
0.0950324
0.094992
0.094959
0.094932
0.0949122
0.0948973
0.0948869
0.0948741
0.0948734
0.0948542
0.0948542
0.0948513
0.0948581
0.0948724
0.0949904
0.0949543
0.0949366
0.0949134
0.0948991
0.0948811
0.0948599
0.0948648
0.0948565
0.0948557
0.0948539
0.0948592
0.0856316
0.0953955
0.085632
0.0953934
0.0856328
0.0953921
0.0952584
0.0952016
0.0950902
0.0950102
0.0949704
0.0949276
0.0949018
0.0948821
0.0948684
0.0948612
0.0948549
0.0948528
0.0948516
0.0948518
0.0856332
0.0953893
0.095257
0.0952016
0.0950915
0.0950113
0.0949764
0.0949324
0.0949063
0.0948865
0.0948723
0.0948638
0.0948566
0.0948535
0.0948517
0.0948513
0.085634
0.0953888
0.0952589
0.0952065
0.0950984
0.0950203
0.0949842
0.0949367
0.0949084
0.0948847
0.0948686
0.0948608
0.0948539
0.0948521
0.0948511
0.0948517
0.0856342
0.0953858
0.0952557
0.0952042
0.0950963
0.0950165
0.094994
0.0949428
0.0949155
0.0948919
0.0948755
0.0948656
0.0948572
0.0948537
0.0948514
0.0948507
0.0948526
0.0948547
0.0856351
0.095387
0.0952574
0.0952092
0.0951018
0.095025
0.094998
0.0949465
0.0949153
0.0948884
0.0948692
0.0948609
0.0948529
0.0948517
0.0948507
0.0948519
0.0948557
0.0948583
0.085635
0.0953859
0.0952533
0.0952056
0.0950952
0.095017
0.094994
0.094943
0.0949167
0.094892
0.0948758
0.0948667
0.0948576
0.0948539
0.0948513
0.0948504
0.0948527
0.0948545
0.085636
0.0953887
0.0952551
0.0952116
0.0951008
0.0950281
0.0949948
0.0949468
0.0949174
0.0948909
0.0948721
0.0948626
0.0948526
0.0948521
0.0948507
0.0948523
0.0948565
0.0948576
0.0856357
0.0953895
0.0952494
0.095206
0.0950876
0.0950135
0.0949753
0.0949326
0.0949119
0.0948895
0.0948745
0.0948662
0.094857
0.0948541
0.0948514
0.0948512
0.0948539
0.0948566
0.0856367
0.0953924
0.0952495
0.095211
0.0950904
0.0950219
0.0949796
0.0949417
0.0949149
0.0948909
0.094873
0.0948643
0.0948535
0.0948533
0.0948511
0.0948521
0.0948557
0.094858
0.0950103
0.0949636
0.0949287
0.0949035
0.0948862
0.0948727
0.0948666
0.0948564
0.0948543
0.0948516
0.0948516
0.0948551
0.0856429
0.0955599
0.0856431
0.0955581
0.0856435
0.0955556
0.0856439
0.0955537
0.0856444
0.0955507
0.0953221
0.0952068
0.0951279
0.0950141
0.0949832
0.0949313
0.0949048
0.094884
0.0948702
0.0948616
0.0948548
0.0948514
0.09485
0.0948493
0.085645
0.0955492
0.0953231
0.0952097
0.0951324
0.0950193
0.0949875
0.094934
0.0949067
0.0948847
0.0948702
0.0948612
0.0948544
0.0948511
0.09485
0.0948495
0.0856456
0.0955462
0.095322
0.0952111
0.0951345
0.0950213
0.0949902
0.0949354
0.0949076
0.0948851
0.0948711
0.0948618
0.0948549
0.0948513
0.0948499
0.0948491
0.0856461
0.095546
0.0953233
0.0952141
0.0951392
0.0950278
0.0949947
0.0949382
0.0949099
0.0948859
0.0948708
0.0948611
0.0948541
0.0948508
0.0948498
0.0948494
0.0948527
0.094855
0.0856467
0.0955437
0.0953206
0.0952146
0.095138
0.0950276
0.0949938
0.0949376
0.0949094
0.0948858
0.0948716
0.0948619
0.0948551
0.0948513
0.0948498
0.0948489
0.0948519
0.0948546
0.0856472
0.0955458
0.0953208
0.0952162
0.0951384
0.0950297
0.0949948
0.09494
0.0949115
0.0948875
0.094872
0.0948614
0.0948542
0.0948507
0.0948497
0.0948492
0.0948524
0.0948546
0.0856476
0.0955441
0.0953165
0.0952156
0.0951345
0.0950263
0.0949912
0.0949385
0.0949107
0.0948879
0.0948732
0.0948625
0.094856
0.0948514
0.0948499
0.094849
0.0948521
0.0948558
0.0856481
0.0955488
0.0953154
0.0952165
0.0951304
0.0950254
0.0949888
0.0949406
0.0949123
0.0948896
0.0948731
0.0948616
0.0948549
0.0948508
0.0948498
0.0948491
0.094852
0.0948546
0.0856487
0.0955483
0.095311
0.0952163
0.0951264
0.0950233
0.0949855
0.0949392
0.0949117
0.0948907
0.0948759
0.0948637
0.0948576
0.0948513
0.0948501
0.0948492
0.0948523
0.0948571
0.0950218
0.094982
0.0949401
0.0949119
0.094892
0.0948751
0.0948619
0.0948561
0.0948512
0.0948501
0.0948493
0.0948519
0.0857068
0.0961753
0.0857069
0.0961737
0.0857071
0.0961723
0.0857074
0.0961706
0.0857077
0.0961696
0.0958333
0.0954523
0.0952757
0.0950771
0.0949998
0.0949419
0.0949014
0.0948832
0.0948646
0.0948586
0.0948504
0.0948486
0.0948464
0.0948469
0.085708
0.0961678
0.0958334
0.0954537
0.0952777
0.0950788
0.0950024
0.0949436
0.094903
0.0948845
0.0948656
0.0948592
0.0948509
0.0948488
0.0948465
0.0948469
0.0857084
0.0961676
0.095835
0.095457
0.0952811
0.0950825
0.0950052
0.0949452
0.0949037
0.0948843
0.0948648
0.0948586
0.0948502
0.0948484
0.0948464
0.094847
0.0857086
0.0961662
0.0958337
0.0954573
0.0952815
0.0950828
0.0950076
0.0949467
0.0949056
0.094886
0.0948664
0.0948596
0.094851
0.0948488
0.0948465
0.0948468
0.0948487
0.0948519
0.085709
0.0961674
0.0958342
0.0954607
0.0952835
0.0950862
0.095009
0.0949481
0.0949057
0.0948857
0.0948652
0.0948587
0.09485
0.0948483
0.0948463
0.094847
0.0948493
0.0948526
0.0857091
0.0961675
0.0958308
0.0954595
0.0952804
0.0950843
0.0950079
0.0949475
0.0949062
0.0948867
0.0948665
0.0948598
0.094851
0.0948488
0.0948464
0.0948468
0.0948488
0.094852
0.0857096
0.0961701
0.0958302
0.095463
0.0952812
0.0950879
0.0950085
0.0949493
0.0949066
0.0948871
0.0948657
0.0948591
0.0948499
0.0948484
0.0948463
0.0948471
0.0948493
0.0948527
0.0857096
0.0961719
0.0958244
0.0954605
0.0952744
0.0950837
0.0950034
0.0949464
0.094905
0.0948867
0.0948661
0.0948597
0.0948508
0.0948488
0.0948464
0.0948469
0.094849
0.0948524
0.0857102
0.0961752
0.0958222
0.0954638
0.0952741
0.0950869
0.0950043
0.0949493
0.0949059
0.0948879
0.0948659
0.0948594
0.09485
0.0948485
0.0948463
0.0948471
0.0948492
0.0948528
0.0950828
0.0949985
0.0949463
0.0949029
0.0948868
0.0948654
0.0948596
0.0948506
0.0948487
0.0948464
0.094847
0.0948491
0.0857106
0.0968085
0.0857108
0.0968067
0.085711
0.0968046
0.0857113
0.0968028
0.0857117
0.0968008
0.0960881
0.0954692
0.0953845
0.0951603
0.0950437
0.0949811
0.0949172
0.0948971
0.0948697
0.0948612
0.09485
0.0948468
0.094844
0.0948443
0.0857121
0.0967995
0.0960896
0.095472
0.0953875
0.0951634
0.095046
0.0949826
0.0949182
0.0948977
0.0948698
0.0948612
0.0948499
0.0948467
0.0948441
0.0948444
0.0857125
0.0967979
0.0960904
0.0954745
0.0953896
0.0951654
0.0950473
0.0949832
0.0949185
0.0948978
0.09487
0.0948613
0.09485
0.0948468
0.0948441
0.0948443
0.085713
0.0967977
0.0960913
0.0954772
0.0953919
0.0951687
0.0950496
0.094985
0.0949198
0.0948985
0.0948701
0.0948612
0.0948498
0.0948467
0.0948441
0.0948443
0.0948471
0.0948516
0.0857134
0.096797
0.0960905
0.0954795
0.0953924
0.0951702
0.0950498
0.0949853
0.0949199
0.0948985
0.0948702
0.0948613
0.0948501
0.0948468
0.0948441
0.0948443
0.0948469
0.0948516
0.0857139
0.0967985
0.0960893
0.0954813
0.0953922
0.0951723
0.0950508
0.094987
0.0949212
0.0948996
0.0948705
0.0948612
0.0948499
0.0948466
0.0948441
0.0948443
0.094847
0.0948515
0.0857144
0.0967989
0.096087
0.0954833
0.0953914
0.0951731
0.0950504
0.0949876
0.0949214
0.0948999
0.0948707
0.0948614
0.0948502
0.0948468
0.0948442
0.0948443
0.094847
0.0948518
0.085715
0.0968022
0.0960838
0.0954846
0.0953889
0.0951738
0.09505
0.0949893
0.0949225
0.0949011
0.0948709
0.0948614
0.0948501
0.0948467
0.0948441
0.0948443
0.0948469
0.0948515
0.0857156
0.0968036
0.0960806
0.0954873
0.0953878
0.0951753
0.09505
0.0949904
0.0949228
0.0949017
0.0948713
0.0948617
0.0948505
0.0948469
0.0948443
0.0948445
0.094847
0.094852
0.0951758
0.095049
0.0949916
0.0949231
0.0949025
0.0948713
0.0948616
0.0948503
0.0948468
0.0948442
0.0948445
0.0948468
0.0860839
0.100906
0.0860839
0.100905
0.086084
0.100906
0.0860842
0.100907
0.0860843
0.100909
0.0989805
0.0963091
0.0954651
0.0952501
0.094999
0.0949656
0.094895
0.0948798
0.09486
0.0948506
0.0948449
0.0948408
0.0948395
0.0948402
0.0860845
0.10091
0.0989818
0.0963114
0.0954665
0.0952514
0.095
0.0949663
0.0948954
0.0948802
0.0948602
0.0948507
0.0948449
0.0948409
0.0948395
0.0948402
0.0860846
0.100913
0.0989834
0.0963143
0.0954681
0.0952532
0.095001
0.0949669
0.0948957
0.0948803
0.0948601
0.0948506
0.0948448
0.0948408
0.0948395
0.0948403
0.0860848
0.100915
0.0989833
0.0963164
0.0954687
0.0952543
0.0950019
0.0949677
0.0948963
0.0948807
0.0948604
0.0948508
0.0948449
0.0948409
0.0948396
0.0948403
0.0948406
0.0948472
0.0860849
0.100918
0.0989835
0.0963193
0.0954694
0.0952562
0.0950026
0.0949687
0.0948967
0.0948809
0.0948602
0.0948506
0.0948448
0.0948409
0.0948396
0.0948404
0.0948408
0.0948473
0.086085
0.100921
0.0989813
0.0963208
0.0954684
0.0952567
0.0950028
0.0949693
0.0948972
0.0948811
0.0948604
0.0948508
0.0948449
0.094841
0.0948397
0.0948404
0.0948408
0.0948472
0.0860852
0.100925
0.09898
0.0963238
0.0954682
0.0952588
0.0950034
0.0949707
0.0948977
0.0948814
0.0948603
0.0948507
0.0948448
0.094841
0.0948397
0.0948405
0.0948409
0.0948474
0.0860854
0.100929
0.0989755
0.0963247
0.0954654
0.0952587
0.0950027
0.094971
0.0948977
0.0948815
0.0948603
0.0948508
0.0948449
0.0948411
0.0948398
0.0948406
0.0948409
0.0948474
0.0860856
0.100935
0.0989728
0.0963281
0.0954645
0.0952609
0.0950034
0.0949727
0.0948982
0.0948819
0.0948603
0.0948508
0.0948448
0.0948412
0.0948399
0.0948408
0.0948411
0.0948475
0.0952612
0.0950027
0.0949728
0.0948977
0.0948818
0.0948601
0.0948509
0.094845
0.0948413
0.0948401
0.0948409
0.0948412
0.0861026
0.0999299
0.0861027
0.0999301
0.0991614
0.0987097
0.0961837
0.0958718
0.0952378
0.0861029
0.0999328
0.0991649
0.0987124
0.0961858
0.0958726
0.0952385
0.0951443
0.0949757
0.094934
0.0861032
0.0999357
0.0991688
0.098716
0.0961883
0.095874
0.0952395
0.0951443
0.0949759
0.0949337
0.094887
0.0948688
0.0948545
0.0948488
0.0861035
0.0999393
0.0991724
0.0987201
0.096191
0.0958755
0.0952406
0.0951443
0.094976
0.0949333
0.0948869
0.0948686
0.0948545
0.0948488
0.0948439
0.0948476
0.0861038
0.0999429
0.0991765
0.0987247
0.0961939
0.0958776
0.095242
0.0951447
0.0949765
0.0949331
0.0948868
0.0948684
0.0948543
0.0948487
0.0948439
0.0948475
0.0948455
0.086104
0.0999468
0.0991807
0.0987294
0.0961967
0.0958796
0.0952431
0.0951449
0.0949768
0.0949327
0.0948866
0.0948681
0.0948543
0.0948486
0.094844
0.0948474
0.0948455
0.0948618
0.0861043
0.0999503
0.099184
0.0987342
0.0961994
0.0958821
0.0952449
0.0951457
0.0949775
0.0949326
0.0948865
0.0948678
0.0948542
0.0948484
0.094844
0.0948474
0.0948455
0.0948616
0.0861045
0.0999541
0.0991874
0.0987389
0.0962019
0.0958844
0.0952461
0.0951461
0.0949779
0.0949322
0.0948862
0.0948676
0.0948542
0.0948484
0.0948441
0.0948473
0.0948456
0.0948614
0.0948614
0.0861047
0.0999573
0.0991889
0.098743
0.0962035
0.095887
0.0952477
0.0951471
0.0949787
0.0949322
0.0948862
0.0948674
0.0948541
0.0948483
0.0948442
0.0948472
0.0948456
0.0948612
0.0948613
0.0861049
0.0999612
0.0991915
0.0987481
0.0962057
0.0958899
0.0952493
0.0951476
0.0949789
0.0949319
0.094886
0.0948672
0.0948541
0.0948483
0.0948443
0.0948472
0.0948457
0.094861
0.0948614
0.0861051
0.0999642
0.0991917
0.0987521
0.0962064
0.095893
0.0952511
0.0951482
0.0949792
0.0949319
0.0948859
0.0948671
0.0948541
0.0948483
0.0948444
0.0948472
0.0948458
0.0948607
0.0948613
0.0861054
0.094979
0.0949316
0.0948856
0.0948669
0.0948541
0.0948483
0.0948446
0.0948473
0.0948459
0.0948606
0.0949314
0.0948854
0.0948667
0.0948541
0.0948484
0.0948448
0.0948473
0.0948461
0.0870444
0.102501
0.0870444
0.102498
0.110917
0.101224
0.104394
0.0996827
0.10077
0.0870444
0.102496
0.110916
0.101218
0.104389
0.0996743
0.100761
0.0974419
0.0984024
0.0960875
0.0870446
0.102494
0.110914
0.101213
0.104383
0.0996651
0.10075
0.0974219
0.0983783
0.0960744
0.096509
0.095641
0.0958681
0.09553
0.0870447
0.102491
0.110912
0.101206
0.104376
0.0996548
0.100738
0.0974001
0.0983519
0.09606
0.0964905
0.0956343
0.0958576
0.0955269
0.0956813
0.095501
0.0870449
0.102489
0.110911
0.1012
0.104369
0.0996444
0.100725
0.0973763
0.0983206
0.0960433
0.0964674
0.0956263
0.0958444
0.0955233
0.0956725
0.0954986
0.0956926
0.0870452
0.102487
0.11091
0.101195
0.104363
0.0996343
0.100713
0.097353
0.0982898
0.0960272
0.0964456
0.0956191
0.0958323
0.0955201
0.0956642
0.0954965
0.095684
0.0954922
0.0870454
0.102486
0.110909
0.10119
0.104358
0.0996254
0.100701
0.0973299
0.0982566
0.0960102
0.0964211
0.0956115
0.0958186
0.095517
0.0956553
0.0954946
0.0956754
0.0954892
0.0870457
0.102484
0.11091
0.101186
0.104354
0.0996167
0.100689
0.0973077
0.0982245
0.0959942
0.0963986
0.0956047
0.0958065
0.0955143
0.0956468
0.0954931
0.0956667
0.0954867
0.0958806
0.087046
0.102484
0.110911
0.101185
0.104351
0.0996107
0.100678
0.0972882
0.0981938
0.0959796
0.0963763
0.0955986
0.0957946
0.0955121
0.0956388
0.0954917
0.095659
0.0954845
0.09587
0.0870464
0.102483
0.110912
0.101182
0.104348
0.0996033
0.100666
0.0972655
0.0981601
0.0959644
0.0963537
0.0955926
0.0957829
0.0955102
0.0956305
0.0954907
0.0956506
0.0954825
0.0958594
0.0870468
0.102484
0.110915
0.101183
0.104347
0.0995997
0.100657
0.0972473
0.0981312
0.0959525
0.0963347
0.0955883
0.0957731
0.0955093
0.0956238
0.0954901
0.095644
0.0954807
0.0958502
0.0870473
0.0980933
0.0959375
0.0963113
0.0955827
0.0957608
0.0955084
0.0956157
0.0954897
0.0956361
0.0954789
0.0959266
0.096294
0.0955792
0.0957514
0.0955085
0.0956101
0.0954899
0.0956304
0.0992483
0.0999931
0.0977426
0.0962758
0.0800908
0.0878943
0.0642946
0.100461
0.0960939
0.0953859
0.0950903
0.0966675
0.0509868
0.0581237
0.0986311
0.0959831
0.0674195
0.101183
0.10058
0.101077
0.0827375
0.0797409
0.0890853
0.0477006
0.0972918
0.0991529
0.0961897
0.0499031
0.0809145
0.0832822
0.0431403
0.0893576
0.0987134
0.0901146
0.0424151
0.0812918
0.0798219
0.0836628
0.0973377
0.0868272
0.0743073
0.0849547
0.0827336
0.095464
0.0860729
0.0541299
0.0790087
0.093848
0.0948016
0.0815867
0.0595657
0.0907091
0.044032
0.100202
0.0859368
0.0947285
0.0816698
0.0806703
0.0945975
0.0738602
0.0815328
0.0847489
0.0505749
0.0425031
0.0713231
0.08727
0.0470166
0.0459929