/*--------------------------------*- C++ -*----------------------------------*\
  =========                 |
  \\      /  F ield         | OpenFOAM: The Open Source CFD Toolbox
   \\    /   O peration     | Website:  https://openfoam.org
    \\  /    A nd           | Version:  10
     \\/     M anipulation  |
\*---------------------------------------------------------------------------*/
FoamFile
{
    format      ascii;
    class       volScalarField;
    location    "0.1";
    object      nut;
}
// * * * * * * * * * * * * * * * * * * * * * * * * * * * * * * * * * * * * * //

dimensions      [0 2 -1 0 0 0 0];

internalField   nonuniform List<scalar> 
114955
(
0.00991526
0.00993823
0.00994706
0.0099476
0.00995138
0.00994968
0.0099527
0.00992665
0.00993756
0.00994616
0.00994741
0.00994762
0.00995095
0.00995289
0.00991177
0.00993544
0.00994965
0.00994732
0.00995316
0.00995337
0.00995455
0.00992397
0.00993573
0.00994815
0.00992712
0.00989794
0.00994783
0.0099507
0.0098049
0.0098483
0.00985344
0.0098012
0.00990437
0.00992636
0.00982706
0.00988743
0.00992394
0.00994123
0.00991972
0.00994388
0.00995116
0.00972812
0.00968504
0.00986586
0.00988188
0.00992041
0.00993768
0.00994363
0.00994084
0.00993785
0.00994867
0.00984553
0.00988888
0.00991872
0.00982538
0.00988522
0.00993041
0.00992467
0.00987241
0.00994427
0.00994298
0.00984096
0.00991225
0.00991903
0.00982177
0.0097925
0.00961091
0.00975275
0.00991988
0.00989462
0.00983036
0.00969927
0.00954834
0.00989716
0.00988709
0.00993007
0.00985812
0.00973252
0.00954632
0.00989906
0.00990556
0.0099286
0.00988879
0.00984387
0.00983438
0.00951632
0.00959129
0.00977333
0.0099229
0.00991669
0.00993464
0.00994615
0.00995308
0.00995488
0.00995504
0.00962338
0.00976594
0.00986266
0.0099187
0.00990303
0.00985002
0.00993428
0.00994914
0.00995111
0.00941097
0.00963104
0.00978509
0.00982029
0.00951853
0.00969368
0.00967996
0.00977642
0.00992517
0.00994764
0.00951489
0.00952184
0.00965038
0.00968645
0.0098294
0.00983805
0.00960361
0.00975428
0.00982029
0.00992675
0.00968309
0.00953653
0.00902942
0.00985281
0.00983843
0.00987603
0.00967867
0.00973357
0.00986764
0.00983528
0.00975655
0.00961528
0.00964037
0.00970436
0.00980593
0.00985661
0.00966949
0.00957673
0.00940073
0.00957392
0.00983277
0.00984681
0.00987161
0.00974307
0.00940243
0.00980935
0.0093141
0.00807536
0.00613648
0.00674296
0.00985763
0.00985202
0.00982553
0.00966622
0.00963465
0.00941608
0.00847854
0.00598085
0.00821195
0.00800042
0.0098874
0.00990597
0.00986651
0.00974554
0.00935384
0.00847048
0.005901
0.0079326
0.00918656
0.00990845
0.00992388
0.00982297
0.00979682
0.00945588
0.00827111
0.00595774
0.00949591
0.00899979
0.00953316
0.0094474
0.00971058
0.00986092
0.00989916
0.00988419
0.00993849
0.00994842
0.00995171
0.00914204
0.00866792
0.00963987
0.00939993
0.0096041
0.00914392
0.00958553
0.00953613
0.00973217
0.00991454
0.00994164
0.00928328
0.00904098
0.00957495
0.00936959
0.00808092
0.00591985
0.00561417
0.00785863
0.00919077
0.00970786
0.00989711
0.00914044
0.00850247
0.00909267
0.00794345
0.00607281
0.00716302
0.00805156
0.00603845
0.00827536
0.00926647
0.00972941
0.00927065
0.00829871
0.00543086
0.00837454
0.00778763
0.00890948
0.00714239
0.00847409
0.00927083
0.00968855
0.00961373
0.00890528
0.00754865
0.00608926
0.00667843
0.00914383
0.00856041
0.00629615
0.00665764
0.00635335
0.00981168
0.00969853
0.00953599
0.00809778
0.00574461
0.00878836
0.00859512
0.0073081
0.00790801
0.00816583
0.00983335
0.00985129
0.0097912
0.00922474
0.00778968
0.00706367
0.00758864
0.00714482
0.00606492
0.00845417
0.00983519
0.00974747
0.0093465
0.00870512
0.00595384
0.00672562
0.00576767
0.00863369
0.00899651
0.00991822
0.00984572
0.00949194
0.00856725
0.00614292
0.00767726
0.00601875
0.00982551
0.00961053
0.00975997
0.009917
0.00991736
0.00993786
0.00994902
0.00995089
0.009953
0.00995333
0.00893952
0.00952716
0.00932669
0.00975469
0.00987606
0.00989859
0.00990677
0.00994475
0.00994831
0.00995306
0.00835458
0.00732097
0.00543744
0.00567673
0.00830343
0.00908199
0.00964282
0.00975487
0.00985345
0.00993406
0.00994552
0.00877932
0.00510536
0.00505877
0.00577504
0.00572388
0.00602935
0.00823827
0.00921922
0.00975081
0.00983169
0.00993194
0.00870027
0.00575593
0.00562618
0.00643479
0.00671544
0.0072679
0.00693337
0.0057514
0.00837209
0.00942502
0.0098244
0.00890173
0.00572956
0.00575475
0.00586517
0.0072324
0.00822549
0.00759578
0.00539155
0.00503399
0.00835497
0.00935756
0.00860375
0.00755894
0.00541241
0.0048835
0.00794672
0.00886262
0.00896311
0.00820498
0.00690279
0.00562631
0.00825062
0.00928505
0.00845002
0.00530914
0.00530053
0.00859746
0.00908662
0.00887618
0.00723259
0.00766731
0.00686449
0.00965615
0.00890652
0.00780303
0.00584437
0.00488599
0.0087972
0.00898373
0.00715274
0.00775836
0.00812863
0.00983542
0.00978264
0.00958073
0.00830074
0.00539194
0.00603666
0.00629605
0.00304853
0.00316369
0.00259412
0.00985235
0.0097117
0.00925316
0.00812214
0.00588813
0.00595724
0.00321268
0.00414597
0.00482665
0.00984365
0.00967298
0.00959915
0.00633567
0.00696211
0.00395954
0.00341105
0.00969069
0.00949765
0.00966446
0.00977676
0.00985911
0.00991062
0.00991566
0.00993562
0.00994629
0.00995167
0.00995284
0.00909862
0.00849475
0.00969961
0.00932716
0.0095942
0.00950478
0.0097726
0.00984448
0.00992655
0.00994773
0.00995251
0.0084369
0.00527664
0.00496546
0.00547596
0.00543975
0.00605659
0.00817593
0.00918586
0.0098128
0.00991621
0.00994072
0.00884478
0.00583116
0.00449705
0.00284199
0.00690965
0.00698639
0.00530882
0.008078
0.00949085
0.00984849
0.00986502
0.00935242
0.00625414
0.00258443
0.00287119
0.00308345
0.00541303
0.00549501
0.00588041
0.00864369
0.00968986
0.00971079
0.00899382
0.00584843
0.00519617
0.00306277
0.00284307
0.00223202
0.00283609
0.00617656
0.00606816
0.00840768
0.00962562
0.0087041
0.00573322
0.00531439
0.0052573
0.00245465
0.00190976
0.0013286
0.00203248
0.00592799
0.00695254
0.00876271
0.00802906
0.00541901
0.00482536
0.00291382
0.00158769
0.0014539
0.00147692
0.00327533
0.00741902
0.00735712
0.00947459
0.00867527
0.00505724
0.00552899
0.00289527
0.00315896
0.00147904
0.00151424
0.00263616
0.00336327
0.00972417
0.00908059
0.00825716
0.00566523
0.00541936
0.00293105
0.00165817
0.00151317
0.00120759
0.0014648
0.00860725
0.00501243
0.00540997
0.00281491
0.00129299
0.000175752
0.00919156
0.00671833
0.00741307
0.00336503
0.00040799
0.00969516
0.00947814
0.00963413
0.00975836
0.00983037
0.00989609
0.00992646
0.00993769
0.00994638
0.00995099
0.00995215
0.00957787
0.00911159
0.00847779
0.00972944
0.0093922
0.00976108
0.00947748
0.00971021
0.00982084
0.00991934
0.00994107
0.00995008
0.00941304
0.00841
0.0058396
0.00553495
0.00574602
0.00616735
0.00514635
0.00823324
0.00924998
0.00980729
0.00990812
0.00992923
0.00972282
0.00876197
0.0057855
0.00257527
0.00281342
0.00260003
0.00694321
0.00483203
0.0081172
0.00955491
0.00984285
0.00986324
0.00976251
0.00920236
0.00819849
0.00368729
0.000777757
0.0014457
0.00261876
0.00679756
0.00541271
0.00871947
0.00959539
0.00961196
0.0089274
0.00811549
0.00260797
0.00131364
0.000112634
0.00114212
0.00340562
0.00624466
0.00498383
0.00853979
0.00944928
0.00866841
0.00568905
0.00657755
0.00261684
0.00116995
5.96517e-05
0.000787343
0.00213221
0.00675501
0.00535672
0.00873584
0.00801199
0.00510072
0.00573868
0.00272798
0.0011741
0.000683561
0.00341228
0.00600192
0.00686309
0.00946771
0.00864665
0.00473147
0.005889
0.00255495
0.00137181
0.000122944
0.000556066
0.00260575
0.00971348
0.0090558
0.00829246
0.00524443
0.00557453
0.00390969
0.0011429
0.000294357
0.00863164
0.004711
0.00506115
0.00424615
0.000726975
0.00917229
0.0074946
0.00731774
0.00981504
0.00983445
0.00966182
0.0097534
0.00984103
0.00981462
0.00992437
0.0099479
0.00995299
0.00995392
0.00995372
0.00971696
0.00977585
0.00950735
0.00889518
0.00953958
0.00924673
0.00957304
0.00947521
0.00977969
0.00990565
0.00994221
0.00995169
0.00995414
0.00965816
0.00935687
0.00833881
0.00720516
0.005676
0.005884
0.00488893
0.00767673
0.00932383
0.00979338
0.00992092
0.00994551
0.00995134
0.00962113
0.00937343
0.00872886
0.00556721
0.00532946
0.00700591
0.00576572
0.00520872
0.00822378
0.00940924
0.00984873
0.00993467
0.00994438
0.00966887
0.00951648
0.00865715
0.0058904
0.00445553
0.00294077
0.00253316
0.00691022
0.00514214
0.00804969
0.00958322
0.00984594
0.00991381
0.00963576
0.00942981
0.0088248
0.00578424
0.00655151
0.00268457
0.00305188
0.00262109
0.00704429
0.00484783
0.00823383
0.00956895
0.00966233
0.00967869
0.00945583
0.00857807
0.00746812
0.00531672
0.00494827
0.0027334
0.00335104
0.00263543
0.00579499
0.0049739
0.00841511
0.00964036
0.00972196
0.00981404
0.00963574
0.00920945
0.00845751
0.00424021
0.00504693
0.00323818
0.00430345
0.00284852
0.00580316
0.00606393
0.00732586
0.00972061
0.00978908
0.00978717
0.00967123
0.00893577
0.00780959
0.00542332
0.0057399
0.00275728
0.00439589
0.00285156
0.00306642
0.00983691
0.00976466
0.00952423
0.00830227
0.00446791
0.00551853
0.00367001
0.00363308
0.000974679
0.00845854
0.00656143
0.00664972
0.00226303
0.00984826
0.00980188
0.00983793
0.00987294
0.00989947
0.00991728
0.00993864
0.00994676
0.0099497
0.00995206
0.00995225
0.00971774
0.00980589
0.00982099
0.00982847
0.00942334
0.00955299
0.00974579
0.00967189
0.0098907
0.00993761
0.00995085
0.00995258
0.00995371
0.00971546
0.00978352
0.00950367
0.00888371
0.00952515
0.00891424
0.00936707
0.00924591
0.00971285
0.00988699
0.00993023
0.00994674
0.00994821
0.00966625
0.00951011
0.00873068
0.00780096
0.00563803
0.00558789
0.00494014
0.00763974
0.00952089
0.00987516
0.0099427
0.00994469
0.00994368
0.00968288
0.00962097
0.00887171
0.00805821
0.00593435
0.00712573
0.00712178
0.00600791
0.00809794
0.00944101
0.00985789
0.00993453
0.00993381
0.00966845
0.00951041
0.00878072
0.00785821
0.00554861
0.00728429
0.00808485
0.00795406
0.00564236
0.00797145
0.00960845
0.0098644
0.00992151
0.00971971
0.00981033
0.00959278
0.00915779
0.00835984
0.00463572
0.00833774
0.00792923
0.00801081
0.00595099
0.00825963
0.00944461
0.00963743
0.00971453
0.00978544
0.0097938
0.00966755
0.00881547
0.0076882
0.0057385
0.00789744
0.00900262
0.00834975
0.00690297
0.00639207
0.00694159
0.0097323
0.00983438
0.00987513
0.00983701
0.00971533
0.00943159
0.00813026
0.00504152
0.00769975
0.008683
0.00736611
0.00555277
0.00984876
0.00984848
0.0098138
0.00934037
0.00805523
0.00697128
0.0082535
0.00678107
0.00285469
0.00923075
0.00741121
0.00747003
0.0029569
0.00440803
0.00986864
0.00988867
0.0098696
0.0098852
0.00991273
0.00991615
0.00993781
0.00994642
0.00995056
0.00995218
0.00995279
0.00972712
0.00982335
0.0098467
0.00980824
0.00984794
0.00987687
0.0098975
0.00992279
0.00994011
0.00994617
0.00994925
0.00995235
0.00995316
0.00971986
0.00980665
0.00982588
0.00984056
0.00940965
0.00954752
0.00973263
0.00967797
0.0098805
0.00993331
0.0099478
0.00995144
0.00995293
0.00288058
0.00948946
0.00972548
0.00980997
0.00965638
0.00938888
0.00953789
0.00925034
0.00955574
0.00955906
0.00985418
0.00991389
0.00993488
0.00994683
0.00994991
0.0028806
0.00949478
0.00972566
0.00981706
0.00973843
0.00929708
0.00969448
0.00947944
0.00974725
0.00953023
0.00987626
0.00988377
0.00993629
0.00994255
0.00994207
0.00288061
0.00948828
0.00972805
0.00981355
0.00965812
0.0093835
0.00967417
0.00945137
0.00975504
0.0097815
0.00966086
0.00972484
0.00988505
0.00992394
0.00992918
0.0097194
0.00980016
0.00979262
0.00971563
0.00931479
0.0091009
0.00980135
0.00981364
0.00985509
0.00955005
0.00980921
0.00987909
0.00989616
0.00973151
0.00982839
0.0098606
0.00981052
0.0096772
0.00954865
0.00972524
0.00974548
0.00984347
0.00975065
0.00965232
0.00935302
0.00954588
0.00972726
0.00981893
0.00985876
0.00986453
0.00986931
0.00986526
0.00973287
0.00937979
0.00977869
0.00948227
0.00807899
0.00645523
0.00721873
0.00987758
0.00987233
0.00981944
0.00969817
0.00956948
0.00945406
0.00831635
0.00633828
0.00734582
0.00791994
0.00961573
0.00888145
0.00616017
0.00761176
0.00986976
0.00987883
0.00989506
0.00991031
0.00992573
0.00993638
0.0099459
0.0099486
0.00995091
0.00995185
0.00995199
0.00995343
0.00972669
0.00982473
0.00987296
0.0098895
0.00986965
0.00988583
0.00991524
0.00991782
0.0099377
0.00994545
0.00995046
0.00995317
0.00995325
0.00995264
0.00288047
0.00949623
0.0097255
0.00981998
0.00985245
0.00980536
0.00983189
0.00986691
0.0098993
0.00991953
0.00994083
0.00994754
0.00995046
0.00995273
0.00995254
0.00288049
0.00949572
0.00972124
0.00980904
0.00985917
0.0098632
0.00962875
0.00973672
0.00984053
0.00983324
0.00991449
0.00993942
0.00995312
0.0099519
0.00995393
0.00288051
0.00949564
0.00972356
0.00981694
0.00986154
0.00988388
0.00962241
0.00970878
0.0098403
0.00990344
0.0099389
0.00994558
0.00995017
0.0099536
0.00995314
0.00288051
0.00949407
0.00972196
0.00980898
0.0098598
0.00987661
0.00961058
0.00970354
0.0098681
0.00990802
0.00992664
0.00989685
0.0099444
0.00994847
0.00995445
0.00288053
0.00949323
0.00972775
0.00982272
0.00985769
0.00979162
0.00973755
0.00976726
0.00985112
0.00990423
0.00992477
0.00994244
0.00993766
0.009947
0.00994925
0.00972733
0.00982064
0.00987201
0.00988457
0.00989412
0.00989553
0.00981841
0.00987241
0.00992149
0.00991097
0.00991472
0.00993792
0.00994572
0.00973108
0.00982754
0.00987565
0.00987448
0.00987909
0.00984713
0.00984577
0.00989857
0.00989945
0.00987128
0.00985234
0.00958534
0.00975718
0.00989207
0.00991098
0.00992312
0.00992978
0.00990507
0.00978658
0.00977084
0.0096074
0.00989049
0.00986998
0.00987895
0.00976466
0.0094978
0.00990828
0.00987457
0.00989611
0.00990419
0.00991653
0.00992845
0.00993488
0.00994255
0.00994695
0.00994969
0.00995127
0.00995295
0.00995208
0.00288043
0.00949399
0.00972748
0.00982631
0.00986808
0.00988146
0.00989874
0.00991452
0.00992707
0.00993812
0.00994514
0.00994834
0.0099504
0.00995185
0.00995209
0.00995345
0.00288046
0.00949404
0.00972716
0.00982536
0.00986839
0.0098842
0.00986706
0.00989082
0.00990987
0.00991833
0.00993648
0.00994494
0.00994973
0.00995181
0.00995355
0.00995257
0.00288049
0.00949254
0.00972623
0.00982306
0.00985017
0.0098272
0.00985752
0.00989094
0.00991363
0.00992856
0.00994283
0.00994667
0.00994961
0.00995158
0.00995187
0.00995306
0.00994833
0.0028805
0.00949338
0.00972707
0.00982337
0.00985783
0.00983273
0.00987087
0.00989439
0.00991384
0.00991745
0.0099354
0.00994378
0.00994971
0.00995257
0.00995316
0.00995141
0.00995124
0.00288051
0.00949132
0.00972713
0.00982337
0.00985145
0.00982493
0.00986758
0.00989568
0.00992065
0.00993183
0.00993866
0.00994478
0.00994949
0.00995078
0.00995098
0.00995191
0.00994711
0.00288051
0.00949095
0.00972774
0.00982319
0.00986472
0.00987275
0.00986588
0.00988781
0.00992016
0.00992415
0.00993617
0.00993571
0.00994575
0.00995341
0.00995309
0.00994921
0.00995088
0.00972946
0.00982621
0.00987067
0.00987949
0.00988774
0.00989263
0.00991697
0.00992645
0.00994377
0.00994648
0.00994928
0.00994922
0.00995205
0.00995231
0.00994611
0.00972987
0.0098259
0.00987494
0.0098918
0.00990648
0.00991749
0.0099158
0.00991881
0.0099367
0.00991547
0.00990748
0.00994754
0.00995099
0.0099508
0.00994351
0.00989305
0.00990733
0.00990756
0.00991559
0.0099145
0.00993511
0.00993277
0.0099286
0.00994151
0.0099495
0.00994921
0.00993433
0.00288043
0.00949651
0.00288044
0.00949633
0.00972419
0.00982282
0.00987118
0.00989346
0.00990885
0.00992206
0.0099328
0.00994041
0.00994605
0.00994866
0.00995069
0.0099515
0.00995223
0.00995285
0.00288046
0.00949554
0.00972456
0.00982313
0.00987195
0.00989505
0.00990382
0.00991739
0.00992976
0.00993624
0.00994307
0.009947
0.0099499
0.00995144
0.00995407
0.00995238
0.00288048
0.00949552
0.00972391
0.00982099
0.00986736
0.00988547
0.00989598
0.0099132
0.00992663
0.00993828
0.0099466
0.00994947
0.0099517
0.00995234
0.00995244
0.00995443
0.0028805
0.00949418
0.00972458
0.00982175
0.00987198
0.00989377
0.00987724
0.00990138
0.00991755
0.00992749
0.00993913
0.00994496
0.00994941
0.00995168
0.00995361
0.00995291
0.00995257
0.00995179
0.00288051
0.00949429
0.00972436
0.00982079
0.00986881
0.00988813
0.00987414
0.00989744
0.00991757
0.00993441
0.00994767
0.00995033
0.00995298
0.00995303
0.009953
0.00995461
0.00994921
0.0099474
0.00288052
0.00949266
0.00972513
0.00982166
0.00987262
0.0098946
0.00987663
0.00990042
0.00991711
0.00993069
0.00993974
0.0099421
0.00994832
0.00995185
0.00995379
0.00995342
0.00995312
0.00995269
0.00288053
0.00949279
0.00972491
0.00982028
0.00986675
0.00988135
0.00988188
0.00990155
0.00991688
0.00993297
0.00994278
0.0099483
0.00995356
0.00995249
0.00995312
0.00995265
0.00994657
0.00994996
0.00288052
0.00949107
0.00972611
0.00982198
0.00987367
0.00989509
0.00990723
0.00992157
0.00991993
0.0099324
0.00993931
0.00994349
0.0099481
0.0099507
0.00995577
0.00995276
0.00995143
0.00994956
0.00972626
0.0098211
0.00987179
0.00988889
0.00990229
0.00991096
0.00991893
0.00993497
0.00994131
0.0099453
0.00995111
0.00994861
0.00995277
0.00995252
0.0099463
0.00994846
0.00989627
0.00991457
0.00992555
0.00993314
0.0099398
0.00993722
0.00993981
0.0099481
0.0099496
0.0099535
0.00995395
0.00994936
0.00288049
0.00949314
0.0028805
0.00949313
0.00288052
0.00949277
0.00971965
0.00982078
0.0098685
0.00989592
0.00991036
0.00992467
0.00993377
0.00994057
0.00994482
0.00994808
0.00995005
0.00995138
0.00995294
0.00995228
0.00288053
0.00949244
0.00971922
0.0098198
0.00986608
0.00989218
0.00990795
0.00992333
0.00993293
0.00994088
0.0099454
0.00994861
0.00995051
0.00995174
0.00995307
0.00995255
0.00288055
0.00949209
0.0097197
0.00981959
0.00986552
0.00989174
0.0099044
0.00992073
0.00993106
0.00993904
0.00994404
0.00994793
0.00995018
0.0099517
0.00995389
0.00995261
0.00288056
0.0094914
0.0097189
0.00981814
0.00986156
0.00988454
0.00990132
0.00991958
0.00993031
0.00993983
0.00994516
0.00994865
0.00995076
0.00995197
0.00995282
0.00995274
0.0099507
0.00994986
0.00288057
0.0094911
0.00971991
0.00981839
0.00986323
0.0098857
0.00990264
0.00991999
0.00993082
0.00993934
0.0099441
0.00994779
0.00995014
0.00995184
0.00995582
0.00995277
0.00995174
0.00995086
0.00288058
0.00949013
0.00971947
0.00981776
0.00986212
0.00988403
0.00990192
0.00991901
0.00993025
0.00993923
0.00994413
0.00994843
0.0099509
0.00995206
0.0099528
0.00995262
0.00995089
0.00995022
0.00288059
0.00948929
0.00972089
0.00981866
0.00986545
0.00988978
0.00990459
0.00992024
0.00993078
0.00993815
0.00994298
0.00994705
0.00994927
0.00995182
0.00995676
0.00995287
0.00995156
0.00994925
0.00288059
0.00948845
0.00972078
0.00981834
0.00986713
0.00989038
0.00990659
0.00991885
0.00992967
0.00993773
0.00994385
0.00994878
0.00995037
0.00995192
0.00995354
0.00995254
0.00995097
0.0099502
0.00972204
0.00981888
0.0098694
0.00989359
0.00991028
0.00992244
0.00993087
0.00993661
0.00994072
0.00994527
0.00994601
0.00995224
0.00995656
0.00995301
0.00995084
0.00994609
0.00989408
0.00991171
0.00992094
0.00993007
0.00993569
0.00994215
0.00994949
0.00994845
0.00995132
0.00995659
0.00995212
0.00995032
0.00288068
0.00950591
0.00288069
0.00950576
0.0028807
0.00950546
0.00969897
0.00980035
0.00985376
0.0098893
0.00990741
0.00992434
0.00993439
0.00994163
0.0099463
0.00994902
0.00995111
0.00995199
0.00995284
0.00995273
0.00288071
0.00950506
0.00969926
0.00980045
0.00985337
0.00988903
0.00990575
0.00992304
0.00993324
0.0099405
0.00994532
0.00994844
0.00995079
0.00995194
0.00995341
0.00995285
0.00288072
0.00950478
0.0096988
0.00979918
0.00985146
0.00988646
0.00990341
0.00992175
0.00993252
0.00994096
0.00994631
0.00994924
0.00995151
0.00995231
0.0099531
0.00995316
0.00288073
0.00950403
0.00969952
0.00979976
0.00985201
0.00988751
0.00990052
0.00991996
0.00993053
0.0099389
0.00994438
0.00994794
0.00995068
0.00995198
0.00995403
0.00995296
0.00995209
0.0099513
0.00288074
0.0095037
0.00969917
0.00979848
0.00985052
0.00988515
0.00989935
0.00991886
0.00993049
0.00993988
0.00994613
0.00994925
0.00995188
0.00995252
0.00995332
0.00995388
0.00995133
0.00995036
0.00288074
0.00950276
0.00970013
0.00979937
0.00985227
0.00988735
0.00990051
0.00991986
0.00993008
0.00993883
0.00994427
0.0099476
0.00995063
0.00995196
0.00995493
0.00995317
0.00995224
0.0099515
0.00288076
0.0095024
0.00969978
0.0097978
0.00985077
0.00988432
0.00990043
0.00991886
0.00992977
0.00993906
0.00994523
0.00994876
0.00995203
0.00995244
0.00995437
0.00995494
0.00995114
0.0099506
0.00288075
0.00950135
0.00970111
0.00979917
0.00985433
0.00988834
0.00990602
0.00992285
0.0099312
0.00993932
0.00994453
0.00994772
0.00995082
0.00995196
0.00995534
0.0099539
0.00995195
0.00995093
0.00288077
0.00950069
0.00970118
0.00979787
0.00985368
0.00988613
0.00990498
0.00992026
0.00993019
0.00993881
0.00994483
0.00994818
0.00995177
0.00995212
0.00995546
0.00995551
0.00995138
0.00995046
0.00988918
0.00990936
0.00992378
0.00993331
0.00993999
0.00994488
0.00994748
0.00995096
0.00995192
0.00995529
0.0099552
0.00995164
0.00288087
0.00950156
0.00288088
0.00950155
0.00288088
0.00950128
0.00288089
0.00950114
0.0028809
0.00950072
0.00968473
0.00979872
0.00984279
0.00988795
0.00990351
0.0099228
0.00993332
0.00994066
0.0099456
0.00994858
0.00995103
0.00995214
0.0099531
0.00995291
0.00288091
0.00950037
0.0096845
0.00979806
0.00984155
0.00988656
0.0099023
0.00992209
0.00993281
0.00994052
0.00994565
0.00994876
0.00995123
0.00995233
0.00995327
0.00995296
0.00288092
0.00949992
0.00968474
0.00979766
0.0098409
0.00988597
0.00990152
0.00992174
0.0099326
0.00994046
0.00994544
0.00994865
0.00995113
0.00995231
0.00995333
0.00995313
0.00288093
0.00949937
0.00968443
0.00979689
0.00983961
0.00988413
0.00990019
0.00992093
0.00993185
0.00994017
0.00994546
0.00994882
0.00995134
0.00995247
0.0099534
0.00995306
0.00995192
0.0099509
0.00288094
0.00949882
0.00968506
0.00979672
0.00983989
0.00988416
0.00990049
0.00992113
0.00993204
0.00994026
0.00994529
0.00994865
0.00995113
0.0099524
0.00995356
0.00995327
0.00995224
0.00995108
0.00288095
0.00949809
0.00968503
0.00979631
0.0098398
0.0098836
0.00990022
0.00992042
0.00993129
0.00993961
0.00994506
0.00994876
0.00995136
0.00995257
0.00995354
0.00995315
0.00995212
0.00995109
0.00288095
0.00949724
0.00968604
0.00979642
0.00984087
0.00988455
0.00990129
0.00992085
0.00993151
0.00993949
0.00994478
0.00994852
0.00995094
0.00995247
0.00995378
0.00995333
0.00995226
0.00995075
0.00288096
0.00949637
0.00968633
0.00979617
0.00984205
0.00988488
0.00990202
0.00992015
0.00993087
0.0099388
0.00994466
0.00994868
0.00995119
0.00995259
0.00995374
0.00995325
0.00995227
0.0099511
0.00288097
0.00949523
0.00968741
0.00979615
0.00984313
0.00988543
0.00990299
0.00992055
0.00993106
0.0099385
0.00994393
0.00994818
0.00995052
0.00995258
0.00995389
0.00995333
0.0099523
0.00995042
0.00988579
0.00990395
0.00992013
0.00993076
0.00993788
0.00994401
0.00994862
0.00995089
0.00995256
0.00995414
0.00995325
0.00995236
0.00288207
0.00954195
0.00288207
0.00954185
0.00288207
0.00954173
0.00288208
0.00954158
0.00288208
0.00954144
0.00957389
0.00973819
0.00980481
0.00987309
0.00990084
0.00992125
0.00993509
0.00994137
0.00994737
0.00994951
0.00995213
0.00995282
0.00995354
0.00995345
0.00288209
0.00954123
0.00957382
0.00973787
0.00980422
0.00987265
0.00990013
0.0099208
0.00993468
0.00994107
0.00994714
0.00994941
0.0099521
0.00995285
0.00995364
0.00995356
0.0028821
0.00954107
0.00957343
0.00973697
0.00980323
0.0098716
0.00989931
0.00992035
0.00993445
0.00994113
0.00994735
0.0099496
0.00995228
0.00995296
0.00995367
0.00995357
0.0028821
0.00954084
0.0095737
0.00973686
0.00980308
0.00987153
0.0098986
0.00991991
0.00993391
0.00994064
0.00994691
0.00994932
0.0099521
0.00995289
0.00995372
0.00995363
0.0099528
0.00995172
0.00288211
0.0095407
0.00957355
0.00973594
0.00980249
0.00987055
0.00989818
0.0099195
0.00993382
0.00994069
0.00994723
0.00994958
0.00995237
0.00995304
0.00995377
0.00995365
0.00995275
0.00995159
0.00288211
0.00954048
0.00957429
0.0097362
0.00980333
0.00987111
0.00989852
0.00991967
0.00993363
0.00994037
0.00994685
0.00994928
0.00995214
0.00995294
0.00995381
0.00995371
0.00995292
0.0099518
0.00288212
0.00954033
0.00957444
0.00973526
0.0098031
0.00987009
0.00989836
0.00991913
0.00993345
0.0099402
0.00994704
0.00994948
0.00995244
0.00995309
0.00995388
0.00995374
0.00995279
0.00995163
0.00288212
0.0095401
0.00957572
0.00973589
0.00980497
0.0098713
0.00989985
0.00991995
0.00993384
0.00994022
0.00994694
0.00994931
0.00995223
0.00995301
0.00995388
0.00995377
0.00995293
0.00995172
0.00288213
0.00953989
0.00957626
0.009735
0.00980507
0.00987039
0.0098996
0.00991906
0.00993349
0.0099398
0.00994695
0.0099494
0.00995245
0.00995313
0.00995401
0.00995385
0.00995289
0.00995163
0.00987152
0.00990121
0.00991988
0.00993425
0.00994004
0.00994706
0.00994933
0.00995231
0.0099531
0.00995395
0.00995386
0.00995294
0.00288216
0.00949227
0.00288217
0.00949243
0.00288217
0.00949241
0.00288217
0.00949233
0.00288218
0.00949221
0.00953032
0.00973881
0.00977608
0.00984781
0.00988676
0.00990749
0.00992865
0.00993506
0.009944
0.00994664
0.00995042
0.00995134
0.00995245
0.00995216
0.00288219
0.00949205
0.00952991
0.00973815
0.0097753
0.00984704
0.00988616
0.00990712
0.00992841
0.00993498
0.00994402
0.00994673
0.00995053
0.00995145
0.00995254
0.00995223
0.0028822
0.00949183
0.00952969
0.00973749
0.00977472
0.00984649
0.00988581
0.00990696
0.00992835
0.009935
0.00994399
0.00994673
0.00995052
0.00995146
0.00995256
0.00995228
0.0028822
0.00949156
0.00952947
0.00973679
0.00977412
0.00984557
0.00988518
0.00990648
0.00992792
0.00993475
0.00994394
0.00994678
0.0099506
0.00995154
0.0099526
0.00995229
0.00995148
0.00994978
0.00288221
0.00949121
0.00952958
0.00973621
0.00977397
0.00984517
0.00988513
0.0099064
0.00992786
0.00993472
0.00994394
0.00994678
0.00995058
0.00995154
0.00995263
0.00995236
0.00995162
0.00994987
0.00288222
0.00949079
0.00952978
0.00973573
0.00977403
0.0098446
0.00988486
0.00990591
0.00992739
0.00993435
0.00994384
0.0099468
0.00995065
0.00995162
0.00995268
0.00995238
0.00995164
0.00994993
0.00288223
0.00949027
0.00953025
0.0097352
0.00977424
0.00984436
0.00988499
0.00990576
0.00992729
0.00993423
0.00994382
0.00994679
0.0099506
0.00995163
0.00995272
0.00995244
0.00995169
0.00994988
0.00288224
0.00948968
0.00953092
0.00973487
0.00977494
0.0098442
0.00988512
0.00990525
0.00992689
0.00993381
0.00994371
0.00994679
0.00995066
0.0099517
0.00995277
0.00995247
0.00995175
0.00995
0.00288225
0.00948896
0.00953161
0.00973415
0.00977528
0.00984383
0.00988513
0.00990493
0.00992675
0.00993362
0.00994363
0.00994676
0.0099506
0.00995172
0.00995282
0.00995251
0.00995179
0.0099499
0.00984373
0.00988536
0.00990451
0.00992655
0.00993328
0.00994359
0.00994678
0.00995067
0.00995176
0.00995286
0.00995254
0.00995185
0.00288978
0.00875143
0.00288979
0.00875118
0.00288979
0.00875106
0.00288979
0.00875093
0.00288979
0.0087506
0.0090541
0.0095636
0.00977469
0.00982893
0.00990026
0.00990851
0.00993007
0.00993328
0.00993998
0.00994198
0.00994429
0.009945
0.00994582
0.00994522
0.00288979
0.00875027
0.00905358
0.00956312
0.00977436
0.00982868
0.00990004
0.00990843
0.00993001
0.00993327
0.00994
0.00994205
0.00994435
0.00994508
0.00994589
0.00994531
0.0028898
0.00874979
0.00905307
0.00956249
0.00977398
0.00982828
0.0098998
0.0099083
0.00992995
0.00993327
0.00994003
0.00994213
0.0099444
0.00994513
0.00994591
0.00994534
0.0028898
0.00874928
0.00905282
0.00956201
0.00977383
0.00982805
0.00989957
0.00990813
0.0099298
0.0099332
0.00994
0.00994214
0.00994441
0.00994517
0.00994593
0.00994539
0.00994556
0.00994324
0.0028898
0.0087486
0.00905253
0.00956135
0.00977365
0.00982763
0.0098994
0.00990791
0.00992969
0.0099332
0.00994007
0.00994223
0.00994448
0.00994523
0.00994597
0.00994543
0.00994564
0.00994331
0.0028898
0.00874788
0.00905266
0.009561
0.0097739
0.00982755
0.00989937
0.00990778
0.00992957
0.00993316
0.00994005
0.00994225
0.00994449
0.00994527
0.009946
0.00994549
0.00994568
0.00994339
0.00288981
0.00874696
0.00905267
0.00956033
0.00977397
0.0098271
0.00989923
0.00990746
0.00992944
0.00993312
0.00994011
0.00994233
0.00994457
0.00994534
0.00994604
0.00994553
0.00994571
0.00994342
0.00288981
0.00874602
0.00905324
0.0095601
0.00977465
0.00982719
0.00989941
0.00990741
0.00992945
0.00993314
0.00994014
0.00994236
0.00994459
0.00994538
0.00994607
0.00994559
0.00994575
0.00994348
0.00288981
0.00874483
0.00905359
0.00955939
0.00977491
0.00982669
0.00989922
0.00990699
0.00992931
0.00993306
0.00994016
0.00994242
0.00994466
0.00994545
0.00994611
0.00994563
0.00994577
0.00994352
0.00982665
0.0098994
0.00990699
0.00992943
0.00993312
0.00994023
0.00994246
0.00994467
0.00994548
0.00994613
0.00994569
0.0099458
0.002899
0.00746239
0.002899
0.00746117
0.00933286
0.00872577
0.00972751
0.00954801
0.00984487
0.002899
0.00746132
0.0093325
0.00872596
0.00972713
0.00954849
0.00984474
0.00979609
0.00988005
0.00985328
0.00289901
0.00746161
0.00933218
0.00872627
0.00972671
0.00954904
0.00984453
0.0097965
0.00988002
0.00985358
0.00989056
0.00987473
0.00989302
0.00988036
0.00289901
0.00746169
0.00933051
0.00872653
0.00972646
0.00954964
0.00984456
0.00979697
0.00988014
0.00985393
0.0098907
0.00987506
0.0098931
0.00988063
0.00989149
0.00988133
0.00289902
0.00746184
0.00933016
0.00872678
0.00972595
0.00955019
0.00984425
0.00979739
0.00988
0.00985427
0.00989067
0.00987539
0.00989305
0.00988089
0.00989146
0.0098816
0.00989181
0.00289902
0.0074619
0.00932984
0.00872699
0.00972545
0.00955078
0.009844
0.00979785
0.0098799
0.00985464
0.00989065
0.00987571
0.00989299
0.00988115
0.00989138
0.00988185
0.00989177
0.00987883
0.00289903
0.00746184
0.0093296
0.0087271
0.009725
0.00955122
0.00984364
0.00979823
0.0098797
0.00985499
0.00989059
0.00987606
0.00989291
0.00988143
0.00989129
0.00988211
0.00989177
0.0098792
0.00289903
0.00746174
0.00932939
0.0087272
0.00972459
0.00955173
0.00984337
0.00979868
0.00987956
0.00985538
0.00989056
0.00987638
0.00989283
0.00988171
0.0098912
0.00988239
0.00989167
0.00987951
0.00989298
0.00289903
0.00746144
0.00932933
0.00872717
0.00972434
0.00955202
0.00984302
0.00979899
0.00987934
0.00985569
0.00989048
0.00987669
0.00989274
0.00988196
0.00989109
0.00988262
0.00989158
0.00987979
0.00989296
0.00289904
0.00746114
0.00932924
0.00872716
0.00972401
0.00955242
0.00984266
0.00979947
0.00987922
0.00985609
0.00989043
0.00987701
0.00989263
0.00988222
0.00989097
0.00988287
0.00989147
0.00988009
0.00989286
0.00289904