/*--------------------------------*- C++ -*----------------------------------*\
  =========                 |
  \\      /  F ield         | OpenFOAM: The Open Source CFD Toolbox
   \\    /   O peration     | Website:  https://openfoam.org
    \\  /    A nd           | Version:  10
     \\/     M anipulation  |
\*---------------------------------------------------------------------------*/
FoamFile
{
    format      ascii;
    class       volScalarField;
    location    "0.1";
    object      omega_0;
}
// * * * * * * * * * * * * * * * * * * * * * * * * * * * * * * * * * * * * * //

dimensions      [0 0 -1 0 0 0 0];

internalField   nonuniform List<scalar> 
114955
(
9.57704
9.54789
9.53665
9.53611
9.5313
9.53346
9.52962
9.56234
9.54871
9.53781
9.53629
9.53604
9.53187
9.52937
9.58145
9.55147
9.5334
9.53648
9.52916
9.52886
9.52743
9.5657
9.55102
9.53535
9.56223
9.60181
9.53542
9.532
9.71852
9.66285
9.6568
9.72197
9.589
9.56223
9.69101
9.61244
9.56612
9.54386
9.57206
9.54094
9.53168
9.82198
9.88386
9.6388
9.62002
9.57066
9.54877
9.54065
9.54508
9.54873
9.53497
9.66328
9.60817
9.57182
9.69333
9.61541
9.55808
9.56518
9.63398
9.5408
9.54455
9.6748
9.58139
9.57827
9.69897
9.74015
9.89555
9.74353
9.57082
9.60456
9.68771
9.86502
9.98856
9.58771
9.59705
9.55929
9.65189
9.81984
9.98445
9.58651
9.57618
9.56004
9.62236
9.66995
9.68352
10.0169
10.0124
9.76015
9.56741
9.57519
9.55255
9.5381
9.52918
9.52687
9.52667
9.9675
9.77122
9.67127
9.5765
9.59338
9.66469
9.55348
9.5344
9.53196
10.2681
9.95605
9.74506
9.70306
10.0122
9.85269
9.89095
9.75954
9.56483
9.53605
10.1159
10.1132
9.92695
9.86053
9.67042
9.6585
9.92371
9.79087
9.70115
9.56286
9.88164
10.0918
10.6537
9.64509
9.6629
9.6151
9.815
9.81669
9.63693
9.67965
9.78352
9.97994
9.94089
9.84653
9.70001
9.64207
9.86615
9.98573
10.1388
9.92264
9.68002
9.66335
9.6324
9.806
10.1824
9.69945
10.3884
12.5786
15.9326
14.4136
9.64861
9.65766
9.69326
9.90898
9.95273
10.2516
11.832
16.5348
11.6727
11.997
9.61083
9.58885
9.6421
9.81194
10.3915
11.862
16.8015
12.1477
10.3472
9.58515
9.56603
9.69879
9.73363
10.1739
12.1219
16.6482
10.1516
10.92
10.1141
10.1186
9.84965
9.64167
9.60863
9.62991
9.54821
9.53527
9.53107
10.6978
11.2873
9.96774
10.2144
9.99551
10.4513
10.006
10.0932
9.81943
9.57862
9.54388
10.4747
10.6355
10.0426
10.2828
12.6211
16.6281
18.0382
13.0972
10.6225
9.8525
9.60068
10.6981
11.5858
10.7912
12.7679
16.2772
13.5522
11.954
16.5708
12.2321
10.496
9.82225
10.4787
12.3541
18.616
11.4776
12.3664
10.6978
13.6269
11.7523
10.3329
9.82657
9.97539
11.1028
13.6265
16.2579
14.7089
10.4072
11.1644
15.708
14.5992
15.4354
9.71047
9.86465
10.0904
12.6032
17.4938
10.9171
11.137
13.306
12.151
11.7698
9.67851
9.65595
9.73733
10.567
13.0795
13.7684
12.7769
13.5523
16.3911
11.357
9.68029
9.79801
10.4316
11.4974
16.6802
14.5896
17.2165
11.0761
10.5667
9.57215
9.66787
10.1583
11.5142
16.1154
12.5985
16.4254
9.69005
9.98504
9.77539
9.57547
9.5742
9.54831
9.53418
9.53179
9.52921
9.52883
11.0181
10.1243
10.252
9.78918
9.62607
9.60801
9.58874
9.54
9.53542
9.5294
12.2017
13.9343
18.7933
17.5772
12.1943
10.5867
9.94542
9.78749
9.65719
9.55317
9.53867
11.3658
19.9034
20.7304
17.4142
17.7783
16.3757
12.3138
10.499
9.79576
9.68586
9.55623
11.513
17.4227
18.1255
15.3456
14.6874
13.3806
14.2135
17.5771
12.0472
10.2536
9.6948
11.1423
17.4293
17.744
17.2884
13.378
12.0469
13.4926
18.9659
21.0088
11.984
10.3569
11.6711
13.3282
18.9057
21.3272
12.1632
10.7752
10.6467
11.894
14.242
17.951
12.2254
10.4515
11.9845
19.3243
19.2145
11.2071
10.4616
10.7931
13.3692
12.6358
14.3009
9.91775
11.1165
12.9495
17.1077
21.3177
10.8471
10.6726
13.7976
12.7244
11.8763
9.67791
9.75065
10.0246
12.2096
18.8902
16.5136
15.8093
32.9114
31.1777
37.7401
9.65583
9.84451
10.5251
12.2523
16.9209
16.6177
30.5683
23.5701
20.5948
9.67043
9.93535
10.1505
15.5172
13.9624
24.0869
28.3755
9.87153
10.1327
9.90983
9.75433
9.64964
9.58143
9.57725
9.55136
9.53786
9.53107
9.52958
10.7739
11.5176
9.89898
10.2924
10.0235
10.0227
9.76716
9.66916
9.56292
9.53603
9.53006
12.0674
19.2109
21.3367
18.7418
18.9483
16.2907
12.5044
10.6287
9.71125
9.57627
9.5451
11.2387
17.4566
24.7309
37.5192
14.1336
14.0295
19.6607
12.5719
10.1607
9.66374
9.64247
10.3724
15.8457
40.4162
35.1199
33.443
19.7224
19.0852
17.1264
11.46
9.87623
9.84806
10.977
17.2512
20.4472
32.6409
35.4332
45.4251
35.9908
16.1292
16.5288
11.8582
9.9649
11.5211
17.4895
19.2789
19.5353
39.4824
51.3047
74.7155
51.4006
16.8168
14.0443
11.134
12.4789
18.8021
22.121
34.3941
61.2837
67.2118
66.5627
30.4904
13.2864
13.2111
10.1708
11.5803
20.5687
18.101
33.8542
31.1198
65.3338
65.9492
42.7496
29.0741
9.8239
10.7981
12.125
17.7283
18.8751
33.2663
56.3947
62.2294
71.0332
65.0214
11.6802
20.6589
18.6227
34.1048
63.7402
250.342
10.4801
14.5865
12.9957
28.1681
127.023
9.86521
10.1605
9.95187
9.77906
9.68711
9.5992
9.56292
9.54836
9.53747
9.53173
9.53035
10.0229
10.7521
11.5277
9.85847
10.1996
9.78186
10.0683
9.85117
9.7002
9.57224
9.54456
9.53317
10.2728
12.1295
17.1261
18.5762
18.1208
16.16
19.8738
12.3929
10.5231
9.71768
9.58626
9.55949
9.82342
11.3919
17.4315
41.5861
36.5105
43.3354
14.1448
22.0356
12.4633
10.0664
9.67081
9.64484
9.76889
10.6045
11.7219
26.1608
107.556
68.6856
39.8758
14.55
18.7695
11.3234
10.0041
9.98484
11.0925
11.8691
40.7986
74.2225
328.442
75.6357
28.6685
16.1871
20.936
11.5875
10.2182
11.5929
17.9478
14.8906
40.4754
70.9211
349.169
101.842
49.1384
14.5363
18.9373
11.1427
12.4817
20.2662
18.3195
36.4085
68.1795
109.533
28.3416
16.8213
14.2839
10.1796
11.6456
22.8504
16.9862
37.9381
65.2413
208.593
115.727
38.7113
9.83816
10.8402
12.0539
19.5685
18.2205
25.3056
69.5409
162.92
11.6496
22.6555
20.2325
22.2005
98.095
10.4536
12.9363
13.4605
9.70031
9.6782
9.91337
9.78392
9.67332
9.709
9.56575
9.53579
9.52937
9.52818
9.52842
9.79588
9.74847
10.135
11.0921
10.1026
10.3785
10.0554
10.1786
9.75509
9.58961
9.54304
9.53103
9.52799
9.87765
10.3579
12.2417
14.2157
17.7136
17.3726
21.6152
13.515
10.4156
9.73682
9.57026
9.53892
9.53156
9.93632
10.333
11.4791
18.221
19.1565
14.2823
17.5699
19.6788
12.2781
10.2749
9.66369
9.55274
9.54047
9.86613
10.1156
11.6178
17.2856
25.1505
33.3073
42.5412
14.2977
20.1331
12.557
10.0258
9.66696
9.57984
9.91497
10.2461
11.2918
17.6019
15.0113
36.6696
32.1674
39.592
14.099
21.5633
12.1897
10.0398
9.91466
9.84864
10.2055
11.7264
13.4711
19.1832
21.3867
35.7576
28.9861
39.2321
17.4981
20.8346
11.7507
9.91102
9.78889
9.69704
9.95158
10.5676
11.9925
26.8074
20.4245
30.2958
22.7909
37.0082
17.3819
16.375
13.2566
9.7896
9.72774
9.73749
9.89672
11.0516
12.9223
18.6315
17.7225
35.0043
22.0921
38.0538
32.1781
9.67583
9.77458
10.1055
12.2255
24.4064
18.1787
26.3626
26.1184
88.0595
11.5582
14.9966
14.841
41.0186
9.65694
9.72111
9.67505
9.63041
9.59684
9.57429
9.54707
9.53688
9.53328
9.53037
9.53021
9.79308
9.70553
9.69199
9.68632
10.257
10.0554
9.79985
9.90119
9.60907
9.54887
9.53213
9.52998
9.52854
9.79751
9.73827
10.1412
11.1166
10.1309
10.7808
10.3579
10.5285
9.8448
9.61311
9.55796
9.53713
9.53542
9.86409
10.1266
11.4415
13.0106
17.7868
18.3461
21.2281
13.6214
10.1222
9.62855
9.54208
9.5399
9.54132
9.84148
9.96673
11.2267
12.4761
16.8736
14.4884
13.7824
16.4829
12.5854
10.2291
9.65097
9.55261
9.55374
9.86076
10.1249
11.3368
12.8772
18.1864
14.2818
11.9069
12.1628
17.8791
12.7533
9.99242
9.64237
9.56948
9.79217
9.70253
10.0125
10.6525
12.1621
23.5129
11.5672
12.1826
12.078
16.6694
12.1562
10.1605
9.90203
9.79674
9.73174
9.72809
9.90016
11.2685
13.2335
17.4681
12.6836
10.5974
11.5189
13.9852
15.2366
13.8864
9.77357
9.66891
9.62361
9.67677
9.84167
10.2363
12.5626
20.7811
12.6085
11.0172
13.1117
18.0753
9.65767
9.65924
9.70651
10.3874
12.4058
13.9843
11.6883
14.7117
34.4844
10.5847
13.1228
13.3758
32.7263
22.3861
9.6293
9.60694
9.63384
9.61474
9.58003
9.57597
9.54839
9.53759
9.53237
9.53033
9.52958
9.78052
9.68288
9.65931
9.71297
9.66206
9.62527
9.59937
9.5673
9.54534
9.53774
9.53399
9.53014
9.52918
9.79049
9.70483
9.68607
9.67084
10.2776
10.0639
9.81754
9.89262
9.62212
9.55429
9.53596
9.53136
9.52948
29.7016
10.036
9.78388
9.70221
9.91959
10.2958
10.101
10.379
10.0768
10.0571
9.6563
9.57883
9.55225
9.53718
9.53337
29.7017
10.0308
9.78319
9.69205
9.80584
10.4364
9.87152
10.0928
9.79108
9.99747
9.62996
9.61789
9.55055
9.54266
9.54339
29.7018
10.0367
9.78029
9.69731
9.91702
10.3041
9.91283
10.1463
9.77948
9.71988
9.90614
9.82616
9.6164
9.56628
9.55991
9.79119
9.71314
9.7296
9.83624
10.4238
10.6087
9.7191
9.68919
9.64031
9.97395
9.71544
9.62145
9.60092
9.77446
9.67629
9.64149
9.71078
9.89308
10.0653
9.8253
9.77166
9.65831
9.76158
9.87925
10.1774
9.94406
9.77993
9.68782
9.64201
9.638
9.63382
9.64029
9.81974
10.2036
9.73739
10.1354
12.54
15.0657
13.2467
9.62204
9.63085
9.70093
9.8645
10.0405
10.195
11.9763
15.4031
13.0732
12.1308
9.97794
11.1104
15.932
12.5723
9.62783
9.61967
9.60056
9.58216
9.56303
9.54985
9.53788
9.53461
9.53176
9.53067
9.53054
9.52925
9.78046
9.67994
9.62342
9.60563
9.63377
9.61395
9.57692
9.57393
9.54867
9.53895
9.5326
9.52952
9.52907
9.52979
29.7004
10.0295
9.78239
9.68695
9.65108
9.71624
9.68302
9.63821
9.59716
9.57144
9.5444
9.53596
9.53239
9.5296
9.52991
29.7006
10.0313
9.78781
9.70096
9.64113
9.63941
9.95915
9.8069
9.67396
9.68393
9.57841
9.54663
9.53059
9.53087
9.52828
29.7009
10.0306
9.7849
9.69111
9.63903
9.61374
9.96777
9.84684
9.67382
9.59007
9.5473
9.53854
9.5328
9.52858
9.52921
29.7008
10.033
9.78674
9.70087
9.64006
9.62161
9.98454
9.85413
9.63779
9.58577
9.56286
9.60138
9.54307
9.53524
9.52768
29.701
10.0326
9.77944
9.68364
9.64476
9.73538
9.8104
9.76627
9.65958
9.59085
9.56491
9.54145
9.54883
9.53694
9.53415
9.77935
9.685
9.62384
9.61128
9.60145
9.60121
9.70243
9.63153
9.56938
9.58263
9.58532
9.54596
9.5385
9.77465
9.67684
9.62094
9.62635
9.6224
9.66462
9.66932
9.59666
9.59733
9.63348
9.66052
9.9194
9.72914
9.60154
9.57932
9.56512
9.5577
9.59041
9.74537
9.76467
9.91846
9.59375
9.61285
9.62374
9.77483
10.0374
9.57626
9.62138
9.59716
9.58879
9.57417
9.55966
9.55188
9.54227
9.53684
9.53342
9.53144
9.52973
9.53042
29.7001
10.0318
9.77963
9.6781
9.63024
9.61644
9.59587
9.57681
9.56138
9.54767
9.53892
9.53502
9.53251
9.53075
9.53051
9.52917
29.7003
10.0317
9.78001
9.67937
9.62971
9.61275
9.63687
9.60733
9.58351
9.5731
9.55006
9.53947
9.53346
9.53085
9.52898
9.52984
29.7006
10.0332
9.78157
9.68294
9.65416
9.68754
9.64917
9.60713
9.57848
9.55983
9.54182
9.53711
9.53352
9.53111
9.53082
9.52962
9.53526
29.7007
10.0322
9.78028
9.68237
9.6438
9.68001
9.63189
9.60274
9.57847
9.57419
9.55149
9.54099
9.53353
9.53029
9.5294
9.53136
9.53151
29.7008
10.0344
9.78032
9.68252
9.65251
9.69055
9.63628
9.60119
9.56959
9.55574
9.54709
9.53955
9.53371
9.53215
9.53199
9.53076
9.53683
29.7008
10.0349
9.77925
9.68227
9.63444
9.6276
9.63829
9.61105
9.57036
9.56566
9.55051
9.5512
9.53858
9.53021
9.52936
9.53419
9.53208
9.77689
9.67837
9.62701
9.61925
9.61039
9.60516
9.57428
9.56261
9.54063
9.53742
9.53407
9.53412
9.53063
9.53027
9.53809
9.77618
9.6785
9.62103
9.60286
9.58592
9.57303
9.57595
9.57236
9.54981
9.57699
9.58916
9.53545
9.53176
9.53203
9.54192
9.60141
9.58502
9.58587
9.57608
9.57782
9.55197
9.5556
9.55998
9.54394
9.53374
9.53394
9.55295
29.7
10.0308
29.7002
10.0309
9.78424
9.68252
9.62592
9.60068
9.58282
9.5671
9.55407
9.54477
9.53774
9.53461
9.53208
9.53114
9.5304
9.52985
29.7003
10.0315
9.7837
9.68211
9.6249
9.59859
9.5894
9.5732
9.55814
9.55026
9.54173
9.53688
9.53324
9.53134
9.5286
9.53013
29.7005
10.0316
9.78467
9.68513
9.63102
9.61114
9.59952
9.57856
9.56203
9.54756
9.5371
9.53362
9.53085
9.53013
9.53005
9.52829
29.7007
10.0327
9.7836
9.68396
9.62482
9.60023
9.62379
9.59383
9.57382
9.56151
9.5468
9.53955
9.53391
9.53117
9.52889
9.52951
9.52985
9.53076
29.7008
10.0327
9.784
9.68544
9.62917
9.60781
9.62786
9.59893
9.57369
9.55259
9.5358
9.53257
9.52928
9.52931
9.52938
9.5282
9.5342
9.53642
29.7009
10.0344
9.78282
9.68407
9.62395
9.59909
9.62452
9.59501
9.57435
9.55739
9.54603
9.5432
9.53531
9.53118
9.52868
9.5289
9.52923
9.52972
29.701
10.0345
9.78331
9.68622
9.63201
9.61677
9.61804
9.59379
9.57462
9.55444
9.54199
9.5352
9.52857
9.53002
9.52924
9.53034
9.53763
9.5332
29.701
10.0364
9.78149
9.68364
9.6225
9.59836
9.58486
9.56772
9.57062
9.55512
9.54651
9.54138
9.53564
9.53236
9.52699
9.52978
9.53141
9.53371
9.78141
9.68507
9.62532
9.60694
9.59167
9.58162
9.57194
9.55183
9.54381
9.53898
9.53166
9.53492
9.52968
9.53013
9.53786
9.53519
9.59679
9.57528
9.56243
9.55348
9.5455
9.54906
9.54598
9.53564
9.53373
9.52914
9.52861
9.53406
29.7006
10.0379
29.7008
10.0378
29.7009
10.0379
9.79068
9.68526
9.62944
9.5975
9.5809
9.56375
9.55287
9.54457
9.53937
9.53536
9.53295
9.53129
9.52974
9.53022
29.701
10.0382
9.79134
9.68668
9.63269
9.60245
9.58405
9.56552
9.55396
9.54419
9.53863
9.5347
9.53238
9.53088
9.5296
9.53002
29.7012
10.0382
9.79066
9.68697
9.63341
9.60301
9.58862
9.56889
9.55638
9.54659
9.54041
9.53562
9.53284
9.53095
9.52876
9.52983
29.7013
10.0391
9.79185
9.68902
9.63872
9.61245
9.59262
9.57038
9.55731
9.54554
9.53891
9.53465
9.53207
9.5306
9.52981
9.52981
9.53222
9.53321
29.7014
10.0391
9.79042
9.68865
9.63648
9.61091
9.59093
9.56988
9.55672
9.54624
9.54035
9.53582
9.53292
9.53082
9.52692
9.52964
9.5309
9.53193
29.7015
10.0404
9.79107
9.68954
9.638
9.61314
9.59188
9.57116
9.5574
9.54631
9.54022
9.53494
9.53191
9.53051
9.52982
9.52988
9.53202
9.53277
29.7016
10.041
9.78903
9.68826
9.63354
9.60559
9.58842
9.56956
9.55676
9.54773
9.54179
9.53678
9.53406
9.53089
9.52605
9.52956
9.53118
9.53401
29.7016
10.0425
9.7892
9.68869
9.63136
9.60491
9.58591
9.57136
9.55808
9.54817
9.54056
9.5345
9.53261
9.53071
9.52916
9.52996
9.53191
9.53279
9.78739
9.6879
9.6283
9.60065
9.58113
9.56672
9.55661
9.54964
9.54467
9.53905
9.53826
9.53045
9.52637
9.52943
9.53215
9.53808
9.60002
9.57929
9.5686
9.5575
9.55069
9.54272
9.53364
9.53506
9.53154
9.52651
9.53052
9.53275
29.7025
10.034
29.7026
10.0339
29.7027
10.0341
9.82055
9.71311
9.64925
9.60656
9.58501
9.56445
9.55221
9.54334
9.53752
9.53422
9.53161
9.53056
9.52962
9.52975
29.7028
10.0343
9.82013
9.71301
9.64976
9.60692
9.58719
9.56616
9.55375
9.54485
9.53884
9.53502
9.53208
9.53067
9.52909
9.52959
29.7029
10.0345
9.82077
9.71475
9.6523
9.61029
9.5902
9.56781
9.55464
9.54424
9.53753
9.53397
9.53113
9.53018
9.52933
9.52933
29.7029
10.035
9.81973
9.71396
9.65156
9.60891
9.59393
9.57012
9.55722
9.5469
9.54004
9.53567
9.53223
9.53066
9.52847
9.52943
9.53044
9.5314
29.7031
10.0354
9.82025
9.71572
9.65355
9.61202
9.59546
9.57153
9.55724
9.54562
9.53775
9.53397
9.53067
9.52995
9.52908
9.52866
9.53147
9.53264
29.7031
10.0363
9.81887
9.71449
9.65119
9.60911
9.59393
9.57024
9.55777
9.54697
9.54016
9.53611
9.53231
9.53069
9.52761
9.52921
9.5303
9.53119
29.7032
10.037
9.8194
9.71664
9.6532
9.61314
9.59411
9.57157
9.55814
9.54665
9.53889
9.5346
9.5305
9.53006
9.52809
9.52771
9.53171
9.53234
29.7032
10.0382
9.81748
9.71473
9.64842
9.60781
9.5868
9.56635
9.55624
9.54627
9.53979
9.53594
9.53208
9.53071
9.52726
9.52858
9.53069
9.53193
29.7034
10.0392
9.81741
9.71652
9.64933
9.61078
9.58824
9.56974
9.55751
9.54689
9.53936
9.53531
9.53083
9.53049
9.52712
9.52716
9.53142
9.53251
9.6067
9.58246
9.56509
9.55342
9.54531
9.53929
9.53621
9.53189
9.53077
9.52733
9.52742
9.53111
29.7044
10.0558
29.7045
10.0556
29.7045
10.0556
29.7046
10.0556
29.7047
10.0557
9.84147
9.71532
9.66373
9.6083
9.59003
9.56629
9.55353
9.54446
9.53837
9.53468
9.53167
9.53027
9.52922
9.52934
29.7048
10.0559
9.84181
9.71626
9.6654
9.61015
9.59162
9.56724
9.55421
9.54465
9.53832
9.53447
9.53144
9.53007
9.52906
9.52931
29.7049
10.056
9.84145
9.7168
9.66623
9.61092
9.59263
9.5677
9.55448
9.54475
9.5386
9.53462
9.53159
9.53011
9.52899
9.52911
29.705
10.0566
9.8419
9.71786
9.66796
9.61334
9.59435
9.56876
9.55543
9.54511
9.53856
9.5344
9.5313
9.5299
9.52892
9.52921
9.5306
9.53181
29.7051
10.0569
9.84099
9.71808
9.66757
9.61331
9.59396
9.56851
9.5552
9.54501
9.5388
9.53464
9.53161
9.53002
9.52876
9.52895
9.53023
9.5316
29.7052
10.0579
9.84102
9.71865
9.6677
9.61405
9.59432
9.56942
9.55612
9.5458
9.53906
9.53448
9.53129
9.5298
9.52877
9.52909
9.53039
9.53159
29.7053
10.0586
9.83957
9.71848
9.66626
9.6128
9.59294
9.56888
9.55584
9.54595
9.53945
9.53482
9.53186
9.52995
9.52856
9.52891
9.53022
9.53203
29.7053
10.06
9.83916
9.71882
9.66469
9.61238
9.592
9.56974
9.5566
9.54678
9.53955
9.53458
9.53152
9.52978
9.52859
9.52899
9.53021
9.53158
29.7054
10.0612
9.83761
9.71883
9.66324
9.61165
9.59074
9.56923
9.55637
9.54718
9.54052
9.53525
9.53242
9.52984
9.52847
9.52892
9.5302
9.53247
9.61114
9.58947
9.56972
9.55668
9.5479
9.54037
9.53466
9.53192
9.52985
9.52823
9.52901
9.53011
29.7145
10.0782
29.7145
10.0781
29.7145
10.0781
29.7146
10.0781
29.7146
10.0781
10.0078
9.80016
9.71577
9.62891
9.59423
9.56881
9.55151
9.54371
9.53613
9.5335
9.5302
9.52936
9.52846
9.52859
29.7147
10.0781
10.0079
9.80062
9.71655
9.62951
9.59516
9.56941
9.55205
9.54411
9.53645
9.53366
9.53027
9.52935
9.52838
9.52849
29.7148
10.0783
10.0084
9.80185
9.71786
9.63088
9.59622
9.56998
9.55234
9.54404
9.53618
9.53341
9.53004
9.52921
9.52833
9.52849
29.7148
10.0784
10.008
9.802
9.71804
9.63098
9.59714
9.57056
9.55304
9.54466
9.53674
9.53378
9.53028
9.52932
9.52829
9.52841
9.52939
9.53073
29.7149
10.0786
10.0082
9.80326
9.71882
9.63227
9.59768
9.57109
9.55314
9.54459
9.53633
9.53344
9.52993
9.52913
9.52823
9.52841
9.52949
9.53092
29.7149
10.0789
10.0071
9.80289
9.71769
9.63154
9.59723
9.57087
9.55336
9.54499
9.53681
9.53384
9.53024
9.52927
9.5282
9.52833
9.52928
9.53066
29.715
10.0793
10.0069
9.80417
9.71798
9.63288
9.59745
9.57156
9.55358
9.54519
9.53656
9.53357
9.52986
9.52908
9.52812
9.52833
9.52945
9.53089
29.715
10.0798
10.0049
9.8033
9.71546
9.63129
9.59551
9.5705
9.55305
9.54514
9.53668
9.5338
9.53014
9.52919
9.52814
9.52828
9.52929
9.53078
29.7151
10.0803
10.0041
9.80452
9.71532
9.63249
9.59584
9.57164
9.55347
9.54566
9.53665
9.53368
9.52985
9.52905
9.528
9.52823
9.52935
9.5309
9.631
9.59374
9.57056
9.55246
9.54533
9.5365
9.53377
9.53005
9.52909
9.52807
9.52821
9.52929
29.7147
10.1964
29.7148
10.196
29.7148
10.1958
29.7149
10.1957
29.7149
10.1956
10.0798
9.80156
9.75512
9.66188
9.61218
9.58589
9.55922
9.55107
9.53984
9.53648
9.53178
9.53058
9.52926
9.52956
29.715
10.1956
10.0804
9.8025
9.75619
9.66293
9.61299
9.58639
9.55955
9.55121
9.53984
9.53639
9.53166
9.53047
9.52918
9.5295
29.7151
10.1957
10.0807
9.80341
9.75698
9.66366
9.61345
9.5866
9.55964
9.5512
9.53987
9.53639
9.53168
9.53047
9.52916
9.52944
29.7151
10.196
10.081
9.80438
9.7578
9.66489
9.61429
9.58724
9.56018
9.55151
9.53994
9.53633
9.53159
9.53038
9.52912
9.52943
9.53048
9.53253
29.7152
10.1963
10.0808
9.8052
9.758
9.66543
9.61436
9.58734
9.56024
9.55153
9.53994
9.53635
9.53163
9.53039
9.52909
9.52936
9.53034
9.53245
29.7153
10.1969
10.0805
9.80585
9.75792
9.66619
9.61471
9.58798
9.56083
9.552
9.54007
9.53632
9.53154
9.53029
9.52904
9.52935
9.53032
9.53238
29.7154
10.1975
10.0797
9.8066
9.75762
9.66652
9.61455
9.58818
9.56093
9.55215
9.5401
9.53634
9.53162
9.53031
9.52901
9.52929
9.53026
9.53246
29.7155
10.1985
10.0787
9.80706
9.75667
9.66673
9.61438
9.58885
9.56142
9.55265
9.54023
9.53635
9.53155
9.53023
9.52896
9.52927
9.5302
9.53231
29.7156
10.1994
10.0776
9.80805
9.75623
9.66725
9.61437
9.58927
9.56158
9.5529
9.54034
9.53641
9.53164
9.53022
9.52893
9.52924
9.53017
9.53245
9.66739
9.61405
9.58979
9.56181
9.5533
9.54039
9.53638
9.53157
9.53018
9.52888
9.52921
9.5301
29.7665
11.5198
29.7665
11.5201
29.7665
11.5203
29.7666
11.5206
29.7666
11.5212
10.926
10.0664
9.76474
9.68904
9.59472
9.58328
9.55565
9.55102
9.5427
9.53983
9.53709
9.536
9.5351
9.53573
29.7666
11.5219
10.9268
10.0671
9.76521
9.68942
9.59503
9.58342
9.55575
9.55107
9.5427
9.53978
9.53703
9.53593
9.53504
9.53565
29.7666
11.5228
10.9275
10.0681
9.76574
9.68999
9.59536
9.5836
9.55583
9.55108
9.54266
9.5397
9.53698
9.53588
9.53502
9.53562
29.7667
11.5237
10.9278
10.0688
9.76595
9.69032
9.59566
9.58385
9.55604
9.55119
9.54272
9.5397
9.53698
9.53585
9.535
9.53558
9.53546
9.5383
29.7667
11.525
10.9282
10.0698
9.7662
9.69092
9.59589
9.58416
9.55618
9.5512
9.54263
9.5396
9.53689
9.53579
9.53497
9.53555
9.53539
9.53824
29.7667
11.5262
10.9278
10.0703
9.76585
9.69106
9.59594
9.58435
9.55634
9.55127
9.54266
9.5396
9.5369
9.53576
9.53495
9.5355
9.53535
9.53816
29.7667
11.5279
10.9276
10.0713
9.76576
9.6917
9.59613
9.58479
9.55652
9.55134
9.5426
9.53951
9.53681
9.53569
9.53491
9.53546
9.53534
9.53814
29.7668
11.5296
10.9265
10.0717
9.76479
9.69161
9.5959
9.58487
9.55651
9.55132
9.54257
9.53949
9.53681
9.53567
9.53489
9.53542
9.53531
9.53808
29.7668
11.5318
10.9257
10.0728
9.76444
9.69231
9.59615
9.58545
9.55669
9.55145
9.54254
9.53943
9.53673
9.53561
9.53486
9.53539
9.5353
9.53806
9.69239
9.59592
9.58545
9.55652
9.55137
9.54247
9.53941
9.53673
9.53559
9.53486
9.53536
9.53529
29.6778
13.3649
29.6779
13.3671
10.6234
11.2964
9.88648
10.0347
9.67264
29.6779
13.3672
10.6242
11.2965
9.88707
10.0343
9.67284
9.70996
9.61185
9.6331
29.6779
13.3671
10.6249
11.2965
9.88775
10.0339
9.67314
9.70957
9.61189
9.6328
9.59278
9.60593
9.58714
9.59854
29.678
13.3674
10.6272
11.2966
9.88827
10.0334
9.67322
9.70912
9.61179
9.63242
9.59263
9.60559
9.58706
9.59827
9.58755
9.59749
29.678
13.3677
10.6281
11.2969
9.88907
10.0331
9.67366
9.70876
9.61197
9.63207
9.59264
9.60526
9.5871
9.59802
9.58758
9.59723
9.5874
29.6781
13.3681
10.6289
11.2971
9.88986
10.0327
9.67402
9.70834
9.61209
9.63168
9.59264
9.60494
9.58715
9.59777
9.58766
9.59698
9.58743
9.60131
29.6781
13.3687
10.6295
11.2976
9.89058
10.0325
9.67453
9.70805
9.61237
9.63133
9.59268
9.60458
9.58722
9.59749
9.58775
9.59673
9.58745
9.60094
29.6782
13.3694
10.6301
11.298
9.89125
10.0322
9.67492
9.70767
9.61253
9.63093
9.5927
9.60425
9.5873
9.59722
9.58785
9.59647
9.58754
9.60063
9.58788
29.6782
13.3703
10.6304
11.2985
9.89167
10.0322
9.67542
9.70748
9.61283
9.63063
9.59276
9.60393
9.58738
9.59698
9.58796
9.59624
9.58763
9.60034
9.58788
29.6782
13.3714
10.6307
11.2991
9.89222
10.0321
9.67593
9.70706
9.61296
9.63022
9.59278
9.60361
9.58749
9.59673
9.58809
9.596
9.58775
9.60004
9.588
29.6783
13.3727
10.6306
11.2997
9.89239
10.0322
9.67652
9.70676
9.61314
9.62995
9.59286
9.60336
9.58759
9.59656
9.58823
9.59585
9.58786
9.59977
9.58804
29.6783
9.61326
9.62951
9.59289
9.60301
9.58773
9.59638
9.5884
9.59568
9.58801
9.59947
9.62925
9.59294
9.60277
9.58787
9.59629
9.58857
9.59559
9.58815
28.6639
21.2563
28.6639
21.2556
29.7118
17.7798
19.9195
13.6473
14.1094
28.6639
21.2535
29.7112
17.7729
19.9115
13.6334
14.0952
11.1146
10.762
10.6699
28.6639
21.2501
29.7106
17.7649
19.9026
13.6171
14.0777
11.1014
10.7426
10.6654
10.4182
10.5021
10.3876
10.4421
28.664
21.2473
29.7108
17.7561
19.8932
13.5992
14.0588
11.0874
10.7222
10.6604
10.417
10.4983
10.3868
10.4391
10.379
10.4302
28.664
21.2436
29.7112
17.7471
19.8838
13.5803
14.0379
11.0721
10.6985
10.6541
10.4155
10.4935
10.3857
10.4354
10.3782
10.4269
10.3775
28.664
21.2401
29.7122
17.7381
19.875
13.5613
14.0172
11.0571
10.6763
10.6477
10.4139
10.4887
10.3846
10.4316
10.3773
10.4233
10.3766
10.4526
28.6641
21.2367
29.7141
17.7301
19.8675
13.5436
13.9966
11.0424
10.6532
10.6407
10.4122
10.4833
10.3833
10.4276
10.3764
10.4195
10.3757
10.4482
28.6641
21.2333
29.7168
17.7221
19.8609
13.5259
13.9764
11.0279
10.6321
10.6336
10.4104
10.478
10.382
10.4234
10.3755
10.4156
10.3747
10.4434
10.3798
28.6642
21.2303
29.7208
17.7162
19.8568
13.5116
13.9584
11.0156
10.6134
10.6266
10.4085
10.4727
10.3805
10.4194
10.3746
10.4117
10.3738
10.4389
10.3783
28.6642
21.2269
29.7252
17.7091
19.8522
13.4949
13.9375
11.0014
10.5942
10.619
10.4065
10.4671
10.3789
10.415
10.3737
10.4074
10.3729
10.4337
10.3766
28.6643
21.224
29.7311
17.7044
19.8509
13.4828
13.92
10.9902
10.5802
10.6122
10.4044
10.4621
10.3773
10.4111
10.3728
10.4036
10.372
10.4291
10.375
28.6644
10.5621
10.6039
10.402
10.4561
10.3758
10.4066
10.3719
10.3991
10.371
10.4237
10.5967
10.3997
10.4511
10.3745
10.4029
10.371
10.3953
10.3701
38.2586
34.918
29.107
22.3114
76.6988
62.7565
139.177
22.3177
72.5075
28.5771
35.7929
28.9682
183.305
116.145
22.507
32.4491
105.473
47.4739
34.6319
45.4317
115.857
92.0244
83.8795
193.792
39.9928
32.9768
33.888
189.503
88.6801
74.1015
186.315
89.0529
66.6658
85.9376
188.399
107.125
71.5396
83.0473
51.3579
82.6773
99.3456
62.0526
88.8214
62.0487
75.7034
133.798
70.5666
36.7674
65.6128
77.1451
120.605
45.9765
166.313
25.0275
73.7787
34.5334
73.4684
64.6739
27.3646
68.2477
72.9053
66.5844
184.71
170.21
94.9527
71.6252
210.513
155.102
73.4048
222.286
45.4938
131.704
80.0414
48.9093
146.609
122.395
42.0342
102.934
79.7498
322.51
25.4975
36.4174
32.1751
28.4347
101.872
72.8254
348.184
20.5889
36.4854
26.366
26.409
103.77
72.6842
21.5328
80.9952
52.7704
91.2413
110.658
68.6057
202.163
62.7047
29.9177
34.6336
83.1114
125.949
75.8309
57.6723
45.0483
46.0897
75.4213
35.1211
145.447
66.0656
28.775
40.4288
83.5572
181.845
104.92
62.1086
76.671
61.0023
94.4813
88.3135
67.8716
30.5805
39.4093
27.9762
24.0337
15.6106
58.736
37.6327
38.4092
32.7626
29.9785
35.8774
35.4041
49.7405
18.9097
28.6639
18.9095
37.8687
27.6839
37.8687
27.6839
30.5143
21.255
30.5081
28.7367
28.7469
28.7367
28.7469
18.9103
28.6639
18.9089
37.8687
27.6839
37.8687
27.6839
30.5391
21.254
30.5073
28.7367
28.7468
28.7367
28.7468
18.1655
29.704
18.1697
29.2622
28.756
29.2622
28.756
21.8035
17.7858
21.7917
28.6295
28.598
28.6295
28.598
11.3983
19.92
11.4001
28.8291
28.6633
28.8291
28.6634
15.7381
13.6474
15.7345
28.5734
28.5629
28.5734
28.5629
10.9077
14.11
10.9081
28.686
28.6046
28.686
28.6046
18.9107
28.6639
18.9083
37.8687
27.6839
37.8687
27.6839
30.5374
21.2532
30.5064
28.7367
28.7467
28.7367
28.7467
18.1657
29.7032
18.1679
29.2619
28.7558
29.262
28.7558
21.7954
17.7789
21.7841
28.6295
28.5979
28.6295
28.598
11.3952
19.9118
11.3974
28.8288
28.6631
28.8288
28.6631
15.7244
13.6333
15.7215
28.5734
28.5628
28.5734
28.5629
10.9067
14.0951
10.9072
28.6857
28.6043
28.6857
28.6043
12.2708
11.1139
12.2712
28.5607
28.5541
28.5607
28.5541
10.8916
10.7608
10.8923
28.6262
28.5739
28.6262
28.574
11.5376
10.6689
11.5383
28.5575
28.5492
28.5575
28.5492
18.9109
28.6639
18.9075
37.8688
27.6839
37.8688
27.6839
30.5351
21.2512
30.5051
28.7368
28.7466
28.7368
28.7466
18.1651
29.7028
18.1656
29.2617
28.7556
29.2617
28.7556
21.7848
17.771
21.7748
28.6295
28.5979
28.6295
28.5979
11.3917
19.9027
11.3942
28.8284
28.6628
28.8284
28.6628
15.7066
13.6168
15.7052
28.5734
28.5628
28.5734
28.5628
10.9049
14.0771
10.906
28.6853
28.6039
28.6853
28.6039
12.2507
11.1004
12.2522
28.5607
28.5541
28.5607
28.5541
10.8906
10.7408
10.8917
28.6258
28.5736
28.6257
28.5736
11.5335
10.6641
11.5344
28.5575
28.5492
28.5575
28.5492
10.943
10.4174
10.944
28.5935
28.5592
28.5934
28.5592
11.3137
10.5012
11.3144
28.5585
28.5477
28.5584
28.5477
10.9902
10.3871
10.9907
28.5802
28.5528
28.5801
28.5528
11.22
10.4416
11.2204
28.5599
28.5473
28.5599
28.5473
18.9112
28.6639
18.9068
37.8688
27.6839
37.8688
27.6838
30.5333
21.2502
30.5045
28.7368
28.7465
28.7369
28.7464
18.1639
29.7035
18.1622
29.2614
28.7554
29.2614
28.7553
21.7738
17.7625
21.7653
28.6295
28.5978
28.6295
28.5978
11.3882
19.8932
11.3916
28.828
28.6625
28.828
28.6625
15.6879
13.5988
15.6881
28.5734
28.5628
28.5734
28.5628
10.9031
14.0576
10.9049
28.6849
28.6035
28.6849
28.6035
12.2289
11.0861
12.2321
28.5606
28.554
28.5606
28.554
10.8895
10.7198
10.8912
28.6253
28.5733
28.6253
28.5733
11.5287
10.6587
11.5302
28.5575
28.5491
28.5575
28.5492
10.9429
10.4159
10.9442
28.5931
28.5589
28.5931
28.5589
11.3099
10.497
11.3108
28.5585
28.5477
28.5585
28.5477
10.9906
10.3861
10.9913
28.5799
28.5526
28.5799
28.5526
11.217
10.4384
11.2172
28.56
28.5473
28.56
28.5473
11.0141
10.3789
11.0142
28.5754
28.5507
28.5754
28.5507
11.2056
10.4301
11.2053
28.5603
28.5473
28.5603
28.5473
18.9115
28.664
18.906
37.8688
27.6839
37.8688
27.6838
30.5312
21.2484
30.5038
28.7369
28.7464
28.737
28.7462
18.1619
29.7045
18.1582
29.2612
28.7552
29.2612
28.7551
21.7621
17.7537
21.7552
28.6295
28.5977
28.6295
28.5977
11.3846
19.8839
11.3888
28.8277
28.6623
28.8276
28.6622
15.6675
13.5799
15.6695
28.5735
28.5627
28.5735
28.5627
10.9012
14.0363
10.9037
28.6845
28.6031
28.6844
28.6031
12.2039
11.0703
12.209
28.5606
28.5539
28.5606
28.5539
10.8883
10.6957
10.8907
28.6247
28.5729
28.6247
28.5729
11.5229
10.6521
11.5251
28.5575
28.5491
28.5575
28.5491
10.9429
10.4141
10.9448
28.5927
28.5586
28.5927
28.5586
11.305
10.492
11.3064
28.5586
28.5476
28.5586
28.5476
10.9912
10.3848
10.9922
28.5796
28.5524
28.5796
28.5524
11.2129
10.4346
11.2133
28.5601
28.5473
28.5601
28.5473
11.0151
10.378
11.0151
28.5751
28.5505
28.5751
28.5505
11.2021
10.4267
11.2014
28.5604
28.5473
28.5604
28.5473
11.0084
10.3779
11.0076
28.5766
28.5514
28.5766
28.5514
18.9117
28.664
18.9052
37.8688
27.6839
37.8688
27.6837
30.5295
21.247
30.5036
28.737
28.7462
28.7371
28.746
18.1593
29.7063
18.1536
29.261
28.7551
29.2609
28.7548
21.7505
17.7451
21.7453
28.6296
28.5976
28.6295
28.5975
11.3814
19.8752
11.3868
28.8273
28.662
28.8272
28.6619
15.6471
13.561
15.651
28.5735
28.5626
28.5735
28.5626
10.8993
14.0151
10.9026
28.6841
28.6027
28.684
28.6026
12.1791
11.055
12.1863
28.5606
28.5539
28.5606
28.5539
10.8871
10.673
10.8901
28.6242
28.5725
28.6241
28.5725
11.5169
10.6454
11.52
28.5575
28.5491
28.5575
28.5491
10.9429
10.4122
10.9453
28.5923
28.5583
28.5923
28.5583
11.3001
10.4869
11.3021
28.5586
28.5476
28.5586
28.5476
10.9917
10.3836
10.9931
28.5793
28.5522
28.5793
28.5521
11.2086
10.4307
11.2093
28.5602
28.5473
28.5602
28.5473
11.016
10.377
11.0161
28.5749
28.5503
28.5749
28.5503
11.198
10.4231
11.1973
28.5605
28.5473
28.5605
28.5473
11.0096
10.377
11.0082
28.5763
28.5512
28.5763
28.5512
11.2632
10.4531
11.2615
28.5591
28.5476
28.5591
28.5476
18.9121
28.664
18.9044
37.8689
27.6839
37.8688
27.6837
30.5283
21.2457
30.504
28.7371
28.746
28.7372
28.7458
18.1556
29.7093
18.1481
29.2608
28.755
29.2607
28.7547
21.7399
17.7374
21.7366
28.6296
28.5974
28.6296
28.5974
11.3785
19.8677
11.3852
28.8269
28.6618
28.8268
28.6617
15.6276
13.5432
15.6337
28.5736
28.5625
28.5736
28.5625
10.8974
13.994
10.9016
28.6836
28.6023
28.6835
28.6022
12.1537
11.0397
12.1631
28.5606
28.5538
28.5606
28.5538
10.8859
10.6495
10.8897
28.6236
28.5721