/*--------------------------------*- C++ -*----------------------------------*\
  =========                 |
  \\      /  F ield         | OpenFOAM: The Open Source CFD Toolbox
   \\    /   O peration     | Website:  https://openfoam.org
    \\  /    A nd           | Version:  10
     \\/     M anipulation  |
\*---------------------------------------------------------------------------*/
FoamFile
{
    format      ascii;
    class       volScalarField;
    location    "0.1";
    object      omega;
}
// * * * * * * * * * * * * * * * * * * * * * * * * * * * * * * * * * * * * * //

dimensions      [0 0 -1 0 0 0 0];

internalField   nonuniform List<scalar> 
114955
(
9.5732
9.54365
9.53228
9.5317
9.52682
9.529
9.52514
9.55829
9.54446
9.53345
9.53192
9.53164
9.5274
9.52485
9.57766
9.54727
9.52897
9.5321
9.52467
9.52435
9.52291
9.56175
9.54681
9.53094
9.55815
9.59795
9.53102
9.5276
9.71584
9.65967
9.65358
9.71917
9.58516
9.55816
9.68915
9.60932
9.56222
9.53958
9.56774
9.53653
9.52717
9.82006
9.88201
9.63565
9.61728
9.56695
9.54467
9.53634
9.54064
9.54432
9.53051
9.65976
9.60462
9.56764
9.69145
9.61229
9.55407
9.56115
9.6304
9.53652
9.5402
9.67175
9.57774
9.5743
9.69559
9.73646
9.89385
9.74049
9.5669
9.60063
9.68473
9.8623
9.98657
9.58404
9.59327
9.55498
9.64876
9.81669
9.98253
9.5828
9.57215
9.55584
9.61909
9.66634
9.67984
10.016
10.0145
9.75895
9.56347
9.57116
9.5484
9.53378
9.52469
9.52234
9.52214
9.96952
9.77006
9.66834
9.57276
9.58967
9.66157
9.54926
9.52995
9.52746
10.2724
9.95798
9.74326
9.70051
10.0124
9.84932
9.8893
9.7563
9.56051
9.53154
10.1179
10.1151
9.92696
9.85675
9.66798
9.65548
9.92189
9.78746
9.69785
9.55867
9.87994
10.0937
10.6594
9.64188
9.66054
9.61162
9.81295
9.81393
9.63337
9.67622
9.78102
9.97873
9.94136
9.84279
9.69787
9.63887
9.86437
9.98379
10.1386
9.92053
9.67662
9.66014
9.62894
9.80528
10.1838
9.69621
10.3877
12.5811
15.9234
14.4081
9.64493
9.65411
9.69017
9.90739
9.95172
10.251
11.8335
16.5242
11.6742
12.0015
9.60695
9.58478
9.63829
9.80876
10.3915
11.8641
16.8084
12.1687
10.347
9.58115
9.56182
9.69547
9.73008
10.1723
12.1237
16.6537
10.1491
10.9292
10.1143
10.1207
9.84878
9.6395
9.60471
9.62657
9.54394
9.53082
9.52659
10.6998
11.2974
9.96728
10.2189
9.99273
10.4548
10.0027
10.093
9.81641
9.57439
9.53944
10.4772
10.6442
10.0414
10.2844
12.6228
16.6267
18.041
13.1033
10.6225
9.84987
9.5967
10.7
11.5967
10.7942
12.7763
16.2714
13.5803
11.9674
16.5623
12.234
10.497
9.81943
10.4843
12.3502
18.6059
11.4784
12.3906
10.704
13.6304
11.7546
10.3331
9.8245
9.97423
11.1123
13.6385
16.2596
14.7485
10.4111
11.1701
15.6993
14.5969
15.4331
9.70722
9.86239
10.0916
12.6007
17.5028
10.9189
11.1484
13.3197
12.1539
11.7737
9.67495
9.65243
9.73458
10.5702
13.0884
13.7634
12.7833
13.5582
16.4023
11.3681
9.67668
9.79496
10.4314
11.5013
16.6743
14.6072
17.2133
11.0876
10.5728
9.56798
9.66384
10.1559
11.5154
16.1195
12.6055
16.4352
9.6875
9.9864
9.77425
9.57152
9.57029
9.54411
9.52973
9.5273
9.5247
9.52432
11.0282
10.1242
10.2565
9.78804
9.62309
9.60385
9.58457
9.53558
9.53094
9.52489
12.2097
13.9544
18.8052
17.6217
12.1916
10.5904
9.94324
9.785
9.65336
9.54883
9.5342
11.3684
19.914
20.7761
17.4552
17.7806
16.3792
12.3127
10.4998
9.79254
9.68229
9.55187
11.5179
17.4281
18.164
15.3817
14.7091
13.3974
14.2189
17.5719
12.0474
10.2531
9.69108
11.1435
17.4331
17.7867
17.3034
13.3916
12.0691
13.5043
18.9677
21.0005
11.9886
10.3567
11.6779
13.3453
18.9277
21.3613
12.1741
10.7852
10.6529
11.9054
14.2475
17.9443
12.2284
10.4575
11.9786
19.3474
19.2149
11.2205
10.4659
10.8003
13.3746
12.6402
14.305
9.91628
11.1242
12.9605
17.1133
21.3363
10.8549
10.6774
13.7959
12.7367
11.8902
9.67457
9.74763
10.0246
12.205
18.8953
16.5253
15.8016
32.8372
31.1537
37.7399
9.65202
9.84204
10.5273
12.262
16.9232
16.6109
30.5426
23.6548
20.6624
9.66681
9.93416
10.148
15.5066
13.9803
24.0565
28.3674
9.86797
10.1353
9.91084
9.75344
9.647
9.5779
9.57301
9.54701
9.53342
9.52657
9.52507
10.7763
11.5323
9.89729
10.2994
10.0221
10.0238
9.76364
9.66584
9.55859
9.53156
9.52555
12.0716
19.2194
21.383
18.773
18.9609
16.2956
12.5055
10.6307
9.70798
9.5721
9.54068
11.246
17.4505
24.7367
37.4003
14.1557
14.0434
19.6505
12.5806
10.1595
9.6602
9.63869
10.3761
15.8464
40.3631
35.1083
33.3927
19.7293
19.1008
17.1234
11.4614
9.87429
9.84532
10.9829
17.2407
20.4373
32.624
35.4254
45.3903
35.975
16.1527
16.5316
11.8657
9.96238
11.5235
17.4875
19.3212
19.5319
39.4786
51.2124
74.4365
51.3028
16.8289
14.0347
11.1356
12.49
18.8304
22.149
34.3143
61.1309
66.9479
66.3776
30.4298
13.3096
13.2145
10.1723
11.5787
20.5901
18.1102
33.7738
31.1236
65.0703
65.6927
42.7528
29.0788
9.82124
10.8038
12.1305
17.7407
18.8957
33.2046
56.1992
62.0037
70.885
64.7777
11.6763
20.6657
18.6422
34.0704
63.5886
249.721
10.4836
14.5976
13.0044
28.1653
126.584
9.86163
10.1633
9.95341
9.77845
9.68506
9.59601
9.55851
9.54399
9.53301
9.52724
9.52584
10.0202
10.7542
11.5428
9.85604
10.2055
9.77904
10.0696
9.84802
9.69702
9.56797
9.54014
9.52868
10.2714
12.1337
17.1385
18.6135
18.1348
16.1943
19.8693
12.3925
10.5245
9.71439
9.58212
9.55515
9.82109
11.4001
17.4366
41.5307
36.4904
43.167
14.1704
22.0335
12.4715
10.0645
9.66715
9.641
9.76628
10.6098
11.7211
26.2538
106.909
68.4461
39.7523
14.5714
18.7526
11.3215
10.0027
9.98261
11.0992
11.8695
40.7848
73.9777
327.314
75.6971
28.6954
16.2079
20.929
11.591
10.2169
11.5954
17.946
14.9117
40.4591
70.7362
348.555
101.48
49.1219
14.5542
18.9198
11.1433
12.494
20.3093
18.3352
36.4327
67.9831
109.415
28.3574
16.8476
14.2885
10.1813
11.6438
22.8727
16.9964
37.9044
65.1171
207.895
115.312
38.737
9.83562
10.846
12.0598
19.5811
18.2423
25.3161
69.3395
162.216
11.6461
22.6651
20.2614
22.2094
97.5433
10.4578
12.9485
13.4741
9.69686
9.6754
9.91411
9.78338
9.67091
9.70658
9.56166
9.53139
9.52487
9.52367
9.52391
9.79141
9.74429
10.1322
11.1031
10.1031
10.3863
10.0543
10.1806
9.75214
9.58556
9.53864
9.52654
9.52346
9.87338
10.3563
12.2498
14.2386
17.7328
17.3895
21.6414
13.5245
10.4135
9.73377
9.56598
9.53446
9.52706
9.93322
10.3323
11.4835
18.2218
19.1985
14.3195
17.5937
19.6664
12.2754
10.2758
9.66
9.54839
9.53603
9.86244
10.1141
11.6245
17.2842
25.1382
33.2954
42.4184
14.3174
20.1285
12.5623
10.0235
9.66325
9.57556
9.91167
10.2451
11.2946
17.602
15.035
36.6343
32.1874
39.4631
14.1251
21.5434
12.1891
10.0387
9.91214
9.84424
10.2029
11.7334
13.4908
19.2177
21.3988
35.7747
28.9836
39.2778
17.5195
20.8272
11.7536
9.90883
9.78443
9.69271
9.94885
10.575
11.9868
26.8315
20.415
30.322
22.8308
37.0633
17.4027
16.3845
13.2614
9.7851
9.72343
9.73406
9.89506
11.0606
12.9342
18.6285
17.7631
34.9953
22.1229
38.1118
32.1664
9.67243
9.77167
10.1062
12.2208
24.4174
18.1797
26.3899
26.1353
87.8806
11.5682
14.9975
14.8495
40.9397
9.65278
9.71864
9.6724
9.62723
9.59326
9.57068
9.54284
9.5325
9.52883
9.52589
9.52572
9.7886
9.70112
9.68856
9.68384
10.2626
10.0593
9.7994
9.90075
9.60533
9.54465
9.52766
9.52548
9.52403
9.79305
9.73403
10.1388
11.1271
10.1296
10.7953
10.3569
10.5333
9.84283
9.60932
9.55377
9.53269
9.53095
9.85974
10.1243
11.4466
13.0235
17.8065
18.3773
21.2549
13.6313
10.1188
9.62506
9.53763
9.53541
9.53686
9.83709
9.96357
11.2332
12.4877
16.9233
14.5057
13.8289
16.4704
12.5843
10.23
9.64747
9.54828
9.54939
9.85642
10.1226
11.3415
12.8894
18.2261
14.292
11.9298
12.1818
17.8793
12.7584
9.9891
9.63852
9.56522
9.78774
9.69837
10.0102
10.6597
12.1561
23.5365
11.5742
12.2003
12.1014
16.6475
12.1553
10.16
9.89954
9.79222
9.72743
9.72484
9.89929
11.2803
13.2451
17.4806
12.6983
10.6003
11.5278
13.9823
15.2394
13.8878
9.76899
9.66441
9.61937
9.67364
9.83948
10.2397
12.5598
20.7954
12.6119
11.0232
13.1194
18.0775
9.65397
9.65576
9.70356
10.3898
12.4137
13.9908
11.6896
14.7111
34.4017
10.5842
13.1339
13.3806
32.6496
22.427
9.62501
9.60293
9.63047
9.61127
9.5762
9.57201
9.54415
9.53321
9.52793
9.52586
9.52509
9.77596
9.67843
9.65509
9.71019
9.65918
9.62204
9.59576
9.56353
9.54105
9.53334
9.52954
9.52566
9.52469
9.786
9.70043
9.68257
9.66804
10.2836
10.068
9.8174
9.89214
9.61854
9.55014
9.53154
9.52689
9.52498
29.6778
10.032
9.77939
9.6978
9.91668
10.2991
10.1026
10.3867
10.0764
10.0584
9.65279
9.57469
9.54794
9.53273
9.5289
29.678
10.0268
9.77865
9.68762
9.80215
10.4416
9.86969
10.0975
9.78888
9.99721
9.62621
9.6144
9.54617
9.53821
9.53897
29.6781
10.0328
9.77577
9.69287
9.91415
10.3072
9.9117
10.1514
9.77741
9.71838
9.90275
9.82485
9.61244
9.56198
9.5556
9.78671
9.70878
9.72633
9.83473
10.4304
10.6158
9.71627
9.68735
9.63697
9.97324
9.71158
9.61756
9.5969
9.76985
9.67176
9.63718
9.70775
9.89143
10.0678
9.82165
9.77067
9.65531
9.75938
9.87681
10.1782
9.94184
9.77537
9.6834
9.63783
9.63412
9.63031
9.63691
9.81943
10.2063
9.73419
10.1333
12.5417
15.0578
13.2471
9.61801
9.62693
9.6978
9.86257
10.0408
10.1939
11.9776
15.3975
13.0816
12.1332
9.9751
11.1082
15.9278
12.5708
9.62354
9.61578
9.59667
9.57819
9.55892
9.54564
9.53351
9.53019
9.5273
9.5262
9.52607
9.52479
9.7759
9.67549
9.61909
9.60165
9.6304
9.61046
9.57305
9.56997
9.54443
9.53459
9.52816
9.52505
9.52458
9.5253
29.6767
10.0255
9.77784
9.68257
9.64692
9.71378
9.6804
9.63514
9.59357
9.56776
9.54013
9.53157
9.52794
9.52511
9.52543
29.6769
10.0273
9.78327
9.69659
9.63724
9.63615
9.96055
9.80665
9.67167
9.68124
9.57438
9.54237
9.52617
9.52639
9.52378
29.6771
10.0266
9.78035
9.68667
9.63512
9.61013
9.9695
9.84697
9.67171
9.58673
9.54285
9.53411
9.52831
9.52406
9.52471
29.6771
10.029
9.7822
9.69649
9.63617
9.61811
9.98586
9.85435
9.63506
9.58243
9.55899
9.59764
9.53873
9.53081
9.52317
29.6772
10.0286
9.77488
9.67924
9.64059
9.73274
9.80809
9.76519
9.65742
9.58754
9.56113
9.53728
9.54437
9.53246
9.52967
9.77477
9.68056
9.61951
9.60727
9.59767
9.59736
9.7006
9.62877
9.56554
9.57872
9.58105
9.54182
9.53423
9.77006
9.67238
9.6166
9.62244
9.61847
9.66139
9.66607
9.59337
9.59397
9.62971
9.65658
9.91829
9.72572
9.5973
9.57513
9.56091
9.55354
9.58644
9.74286
9.76222
9.91538
9.59019
9.60919
9.61996
9.77214
10.0376
9.57224
9.61702
9.59293
9.58477
9.5701
9.55553
9.54766
9.53796
9.53246
9.529
9.52699
9.52528
9.52596
29.6763
10.0278
9.77507
9.67365
9.62595
9.61245
9.59191
9.57276
9.55725
9.54341
9.53456
9.5306
9.52807
9.52629
9.52606
9.52472
29.6766
10.0277
9.77544
9.67493
9.62542
9.60878
9.63365
9.60382
9.57981
9.56919
9.54588
9.53514
9.52905
9.5264
9.52451
9.52536
29.6769
10.0292
9.77701
9.67851
9.65002
9.6846
9.64614
9.60361
9.57469
9.55587
9.53753
9.53275
9.5291
9.52666
9.52637
9.52517
9.53088
29.677
10.0282
9.77571
9.67794
9.63957
9.67695
9.62855
9.5991
9.57458
9.57032
9.54734
9.53669
9.52912
9.52584
9.52493
9.5269
9.52707
29.6771
10.0305
9.77576
9.67808
9.64836
9.68763
9.633
9.59752
9.56559
9.55161
9.54288
9.53529
9.5293
9.52771
9.52755
9.5263
9.53247
29.6771
10.031
9.77468
9.67785
9.6302
9.62378
9.63505
9.60743
9.56634
9.56161
9.54631
9.54703
9.53422
9.52575
9.52488
9.52978
9.52767
9.7723
9.6739
9.6227
9.61529
9.60653
9.60155
9.57038
9.55854
9.53629
9.53309
9.52967
9.52969
9.52619
9.52581
9.53374
9.77159
9.67403
9.61668
9.59866
9.58186
9.56895
9.57207
9.56832
9.54554
9.57309
9.58534
9.53112
9.5274
9.52765
9.53778
9.59719
9.58085
9.58185
9.57202
9.57386
9.5477
9.55122
9.55622
9.53974
9.5294
9.5296
9.54886
29.6762
10.0268
29.6764
10.0269
9.77973
9.67818
9.62163
9.59651
9.57868
9.56292
9.54982
9.54044
9.53336
9.53019
9.52764
9.52668
9.52594
9.52539
29.6766
10.0275
9.77918
9.67775
9.6206
9.59441
9.58538
9.56912
9.55397
9.54602
9.5374
9.5325
9.52882
9.52689
9.52414
9.52566
29.6768
10.0275
9.78016
9.6808
9.6268
9.60714
9.59563
9.57456
9.55792
9.5433
9.53272
9.52918
9.52639
9.52566
9.52558
9.52383
29.677
10.0287
9.77907
9.6796
9.62052
9.59612
9.62033
9.59012
9.56996
9.55744
9.54256
9.53521
9.52951
9.52672
9.52443
9.52503
9.52538
9.5263
29.6771
10.0287
9.77948
9.6811
9.62493
9.60377
9.62443
9.59527
9.56983
9.54844
9.53141
9.52813
9.52479
9.52482
9.5249
9.52375
9.52981
9.53205
29.6772
10.0304
9.77828
9.6797
9.61964
9.59495
9.62106
9.59131
9.57052
9.55333
9.54183
9.53891
9.53093
9.52675
9.52422
9.52442
9.52475
9.52525
29.6773
10.0305
9.77879
9.68189
9.62781
9.61279
9.6143
9.59003
9.57077
9.55033
9.53773
9.53081
9.52408
9.52555
9.52476
9.5259
9.53328
9.52879
29.6772
10.0324
9.77696
9.67926
9.61818
9.59414
9.58078
9.56355
9.56669
9.551
9.54231
9.53709
9.53128
9.52796
9.52252
9.52533
9.52699
9.52932
9.77689
9.68072
9.62105
9.60283
9.5876
9.57761
9.5679
9.54765
9.53957
9.53465
9.52723
9.5305
9.52522
9.52569
9.5335
9.53085
9.59253
9.57103
9.55816
9.54924
9.54119
9.54486
9.54176
9.53125
9.52935
9.52469
9.52416
9.52967
29.6769
10.034
29.677
10.0339
29.6772
10.034
9.78623
9.6809
9.62517
9.59326
9.57673
9.55951
9.54861
9.54024
9.535
9.53096
9.52852
9.52684
9.52529
9.52576
29.6773
10.0343
9.78689
9.68234
9.62845
9.59827
9.57991
9.5613
9.54971
9.53985
9.53425
9.53027
9.52794
9.52642
9.52515
9.52556
29.6775
10.0343
9.7862
9.68262
9.62918
9.59884
9.58458
9.56473
9.5522
9.5423
9.53607
9.53122
9.52842
9.5265
9.52431
9.52536
29.6776
10.0352
9.7874
9.68469
9.63454
9.60841
9.58862
9.56624
9.55312
9.54124
9.53455
9.53023
9.52764
9.52614
9.52536
9.52536
9.52779
9.52879
29.6777
10.0352
9.78595
9.68432
9.63227
9.60683
9.5869
9.56572
9.55252
9.54194
9.53601
9.53142
9.5285
9.52636
9.52243
9.52517
9.52646
9.52749
29.6778
10.0365
9.78662
9.68522
9.63381
9.60911
9.58787
9.56702
9.5532
9.542
9.53587
9.53053
9.52747
9.52606
9.52537
9.52543
9.5276
9.52835
29.6779
10.0371
9.78456
9.68392
9.62931
9.60144
9.58437
9.56538
9.55255
9.54343
9.53746
9.5324
9.52966
9.52644
9.52154
9.5251
9.52674
9.52961
29.6779
10.0386
9.78474
9.68435
9.62711
9.60075
9.5818
9.56722
9.55388
9.54388
9.53621
9.53009
9.52819
9.52627
9.52472
9.5255
9.52749
9.52837
9.78291
9.68354
9.62403
9.59643
9.57697
9.56251
9.55239
9.54535
9.54037
9.5347
9.53393
9.52601
9.52188
9.52498
9.52775
9.53374
9.5958
9.5751
9.56441
9.55328
9.54642
9.5384
9.52922
9.53072
9.52712
9.522
9.52609
9.52835
29.6788
10.03
29.6789
10.03
29.679
10.0301
9.81638
9.70915
9.64522
9.60247
9.58091
9.56023
9.54795
9.53899
9.53313
9.52979
9.52715
9.52609
9.52515
9.52528
29.6791
10.0303
9.81594
9.70904
9.64574
9.60285
9.58313
9.56197
9.54952
9.54053
9.53447
9.53061
9.52764
9.52621
9.52463
9.52512
29.6792
10.0305
9.8166
9.71081
9.64831
9.60626
9.58619
9.56365
9.55043
9.53991
9.53314
9.52953
9.52667
9.52571
9.52486
9.52486
29.6792
10.031
9.81555
9.71
9.64757
9.60486
9.58999
9.56601
9.55307
9.54262
9.5357
9.53128
9.5278
9.5262
9.52401
9.52495
9.52598
9.52695
29.6794
10.0314
9.81607
9.71179
9.64959
9.60802
9.59154
9.56744
9.55308
9.54132
9.53337
9.52954
9.52621
9.52548
9.52461
9.5242
9.52703
9.52821
29.6794
10.0323
9.81468
9.71052
9.6472
9.60507
9.59
9.56613
9.55362
9.54269
9.53583
9.53172
9.52788
9.52624
9.52313
9.52473
9.52584
9.52674
29.6796
10.033
9.81523
9.71271
9.64924
9.60914
9.59015
9.56747
9.55399
9.54237
9.53454
9.53019
9.52604
9.52559
9.52361
9.52322
9.52728
9.52791
29.6795
10.0342
9.81328
9.71076
9.6444
9.60374
9.58275
9.56217
9.55205
9.54198
9.53545
9.53155
9.52765
9.52626
9.52276
9.5241
9.52625
9.5275
29.6797
10.0352
9.81323
9.71257
9.64533
9.60675
9.5842
9.5656
9.55332
9.5426
9.53501
9.53091
9.52638
9.52603
9.5226
9.52265
9.52698
9.52809
9.6026
9.57833
9.56086
9.54916
9.54098
9.53494
9.53182
9.52745
9.52632
9.52282
9.52291
9.52667
29.6808
10.0521
29.6808
10.0519
29.6808
10.0519
29.6809
10.0519
29.681
10.052
9.83743
9.71127
9.65983
9.60416
9.58599
9.56208
9.54928
9.54013
9.53398
9.53026
9.52721
9.5258
9.52474
9.52486
29.6811
10.0522
9.83777
9.71222
9.66151
9.60604
9.5876
9.56304
9.54997
9.54032
9.53394
9.53005
9.52699
9.5256
9.52459
9.52483
29.6812
10.0524
9.83741
9.71276
9.66236
9.60682
9.58863
9.56351
9.55026
9.54042
9.53422
9.53021
9.52714
9.52564
9.52451
9.52463
29.6813
10.0529
9.83786
9.71383
9.66412
9.60927
9.59037
9.56459
9.55121
9.54079
9.53418
9.52997
9.52685
9.52543
9.52444
9.52473
9.52615
9.52736
29.6814
10.0533
9.83695
9.71405
9.66372
9.60923
9.58999
9.56433
9.55098
9.54069
9.53443
9.53022
9.52716
9.52555
9.52429
9.52448
9.52577
9.52715
29.6815
10.0543
9.83699
9.71463
9.66385
9.60999
9.59035
9.56526
9.55191
9.54148
9.53469
9.53006
9.52684
9.52533
9.5243
9.52461
9.52593
9.52714
29.6816
10.055
9.83552
9.71445
9.6624
9.60872
9.58896
9.5647
9.55163
9.54164
9.53508
9.53041
9.52742
9.52549
9.52409
9.52443
9.52576
9.52759
29.6817
10.0564
9.83511
9.71479
9.66082
9.6083
9.58801
9.56558
9.5524
9.54248
9.53519
9.53016
9.52708
9.52532
9.52412
9.52451
9.52575
9.52713
29.6818
10.0575
9.83355
9.71479
9.65935
9.60755
9.58673
9.56505
9.55216
9.54288
9.53617
9.53085
9.52799
9.52538
9.52401
9.52445
9.52575
9.52804
9.60704
9.58544
9.56555
9.55247
9.5436
9.53601
9.53025
9.52749
9.52539
9.52377
9.52454
9.52565
29.691
10.0747
29.691
10.0746
29.691
10.0746
29.6911
10.0746
29.6911
10.0746
10.0051
9.7971
9.71248
9.62507
9.59027
9.56466
9.54724
9.53937
9.53171
9.52905
9.52571
9.52487
9.52396
9.5241
29.6912
10.0747
10.0052
9.79756
9.71327
9.62567
9.59122
9.56527
9.5478
9.53977
9.53204
9.52922
9.5258
9.52486
9.52388
9.52399
29.6913
10.0748
10.0058
9.79881
9.7146
9.62707
9.5923
9.56586
9.54809
9.5397
9.53176
9.52897
9.52555
9.52472
9.52383
9.52399
29.6913
10.0749
10.0053
9.79895
9.71479
9.62718
9.59324
9.56645
9.5488
9.54034
9.53234
9.52935
9.5258
9.52483
9.52379
9.52391
9.5249
9.52626
29.6914
10.0752
10.0056
9.80023
9.71558
9.62849
9.59379
9.56699
9.5489
9.54026
9.53192
9.529
9.52544
9.52464
9.52374
9.52392
9.52501
9.52646
29.6914
10.0754
10.0044
9.79985
9.71443
9.62774
9.59334
9.56676
9.54913
9.54067
9.53241
9.5294
9.52576
9.52478
9.52371
9.52383
9.52479
9.52619
29.6915
10.0759
10.0042
9.80114
9.71474
9.6291
9.59356
9.56746
9.54934
9.54088
9.53215
9.52913
9.52538
9.52459
9.52362
9.52384
9.52497
9.52643
29.6915
10.0763
10.0023
9.80025
9.71219
9.62749
9.5916
9.56637
9.54881
9.54082
9.53228
9.52937
9.52566
9.52471
9.52364
9.52379
9.52481
9.52632
29.6916
10.0769
10.0015
9.80149
9.71206
9.62871
9.59193
9.56753
9.54923
9.54134
9.53224
9.52925
9.52537
9.52456
9.5235
9.52373
9.52487
9.52644
9.62719
9.58979
9.56642
9.5482
9.541
9.5321
9.52934
9.52557
9.52461
9.52357
9.52371
9.52481
29.6912
10.1949
29.6912
10.1945
29.6912
10.1943
29.6913
10.1942
29.6913
10.1941
10.0778
9.79811
9.75225
9.65829
9.6084
9.58194
9.55503
9.54683
9.53546
9.53208
9.52731
9.52611
9.52477
9.52507
29.6914
10.1941
10.0784
9.79906
9.75333
9.65936
9.60922
9.58246
9.55536
9.54697
9.53546
9.53198
9.52719
9.52599
9.52468
9.52501
29.6915
10.1942
10.0787
9.79998
9.75414
9.6601
9.60969
9.58267
9.55546
9.54696
9.5355
9.53199
9.52722
9.52599
9.52466
9.52495
29.6916
10.1944
10.0791
9.80097
9.75497
9.66135
9.61055
9.58332
9.556
9.54728
9.53556
9.53193
9.52712
9.5259
9.52462
9.52494
9.52601
9.52808
29.6916
10.1947
10.0789
9.80179
9.75518
9.66189
9.61062
9.58343
9.55607
9.5473
9.53557
9.53195
9.52717
9.52592
9.52459
9.52487
9.52585
9.528
29.6917
10.1954
10.0785
9.80245
9.75511
9.66266
9.61099
9.58408
9.55666
9.54778
9.5357
9.53192
9.52708
9.52582
9.52454
9.52486
9.52584
9.52793
29.6918
10.1959
10.0778
9.8032
9.75481
9.66299
9.61082
9.58428
9.55677
9.54792
9.53573
9.53195
9.52716
9.52583
9.52451
9.5248
9.52578
9.52802
29.6919
10.1969
10.0768
9.80367
9.75386
9.66321
9.61065
9.58495
9.55727
9.54844
9.53586
9.53196
9.52709
9.52575
9.52446
9.52478
9.52572
9.52786
29.692
10.1979
10.0757
9.80466
9.75341
9.66373
9.61063
9.58538
9.55743
9.54869
9.53598
9.53201
9.52718
9.52575
9.52443
9.52475
9.52569
9.52801
9.66388
9.61031
9.5859
9.55765
9.54909
9.53603
9.53199
9.52711
9.52571
9.52439
9.52472
9.52562
29.7439
11.5288
29.7439
11.529
29.744
11.5293
29.744
11.5296
29.744
11.5302
10.929
10.0662
9.76191
9.68612
9.59074
9.57939
9.5514
9.54678
9.53833
9.53546
9.53266
9.53156
9.53065
9.53129
29.744
11.5308
10.9298
10.067
9.76238
9.68651
9.59105
9.57954
9.5515
9.54683
9.53833
9.5354
9.53261
9.53149
9.53058
9.53121
29.7441
11.5318
10.9306
10.068
9.76292
9.68709
9.59139
9.57972
9.55159
9.54684
9.53829
9.53532
9.53255
9.53144
9.53056
9.53119
29.7441
11.5327
10.9309
10.0687
9.76314
9.68743
9.59169
9.57997
9.5518
9.54696
9.53835
9.53532
9.53255
9.53142
9.53054
9.53114
9.53101
9.5339
29.7441
11.534
10.9312
10.0697
9.7634
9.68804
9.59193
9.58029
9.55194
9.54697
9.53827
9.53522
9.53246
9.53135
9.53051
9.53111
9.53095
9.53384
29.7441
11.5353
10.9308
10.0702
9.76305
9.68818
9.59198
9.58049
9.5521
9.54703
9.5383
9.53522
9.53247
9.53133
9.53049
9.53106
9.53091
9.53376
29.7442
11.537
10.9307
10.0712
9.76296
9.68883
9.59217
9.58093
9.55228
9.54711
9.53824
9.53513
9.53238
9.53126
9.53045
9.53103
9.53089
9.53375
29.7442
11.5387
10.9295
10.0716
9.76199
9.68873
9.59193
9.58101
9.55227
9.54709
9.53821
9.53511
9.53238
9.53123
9.53044
9.53098
9.53086
9.53369
29.7442
11.5409
10.9288
10.0727
9.76164
9.68945
9.59219
9.58159
9.55246
9.54722
9.53818
9.53505
9.5323
9.53118
9.53041
9.53095
9.53085
9.53366
9.68952
9.59195
9.58159
9.55229
9.54714
9.5381
9.53503
9.53231
9.53116
9.5304
9.53092
9.53084
29.6548
13.3858
29.6549
13.388
10.6215
11.3093
9.88343
10.0369
9.66914
29.6549
13.3881
10.6223
11.3094
9.88403
10.0365
9.66934
9.70781
9.608
9.62984
29.655
13.388
10.6231
11.3094
9.88473
10.0361
9.66965
9.7074
9.60805
9.62953
9.58874
9.60224
9.58302
9.59472
29.655
13.3884
10.6254
11.3096
9.88526
10.0356
9.66973
9.70694
9.60795
9.62914
9.58859
9.6019
9.58294
9.59445
9.58342
9.59365
29.6551
13.3886
10.6262
11.3098
9.88608
10.0352
9.67018
9.70656
9.60813
9.62879
9.5886
9.60155
9.58298
9.59418
9.58345
9.59338
9.58327
29.6551
13.389
10.6271
11.3101
9.88688
10.0348
9.67055
9.70612
9.60825
9.62838
9.5886
9.60122
9.58303
9.59392
9.58353
9.59312
9.58331
9.59754
29.6551
13.3896
10.6277
11.3105
9.88762
10.0346
9.67107
9.70583
9.60853
9.62802
9.58864
9.60085
9.5831
9.59364
9.58362
9.59286
9.58332
9.59716
29.6552
13.3903
10.6283
11.3109
9.8883
10.0343
9.67147
9.70543
9.60869
9.62761
9.58866
9.60051
9.58317
9.59336
9.58372
9.59259
9.58341
9.59683
9.58377
29.6552
13.3912
10.6285
11.3114
9.88873
10.0343
9.67198
9.70522
9.609
9.62731
9.58873
9.60019
9.58326
9.59311
9.58383
9.59236
9.5835
9.59654
9.58377
29.6552
13.3923
10.6289
11.312
9.88928
10.0342
9.6725
9.70479
9.60913
9.62689
9.58875
9.59986
9.58337
9.59285
9.58396
9.59211
9.58362
9.59623
9.58389
29.6553
13.3936
10.6288
11.3126
9.88945
10.0343
9.67309
9.70448
9.60932
9.62661
9.58882
9.5996
9.58347
9.59268
9.5841
9.59195
9.58373
9.59595
9.58394
29.6553
9.60944
9.62616
9.58885
9.59925
9.58361
9.59249
9.58427
9.59177
9.58388
9.59564
9.6259
9.58891
9.599
9.58375
9.59239
9.58444
9.59168
9.58402
28.6422
21.2969
28.6422
21.2962
29.696
17.8258
19.9548
13.6845
14.1396
28.6422
21.2941
29.6953
17.8187
19.9467
13.6704
14.1251
11.1314
10.7698
10.6763
28.6423
21.2906
29.6947
17.8105
19.9376
13.6538
14.1074
11.1178
10.7499
10.6717
10.4173
10.5052
10.3862
10.4436
28.6423
21.2878
29.6949
17.8016
19.9281
13.6356
14.0882
11.1032
10.729
10.6665
10.4161
10.5013
10.3854
10.4405
10.3775
10.4314
28.6423
21.284
29.6953
17.7925
19.9187
13.6164
14.0671
11.0875
10.7048
10.6602
10.4145
10.4964
10.3843
10.4368
10.3767
10.428
10.376
28.6424
21.2805
29.6963
17.7834
19.9098
13.5972
14.0462
11.0719
10.682
10.6536
10.413
10.4914
10.3832
10.4329
10.3758
10.4243
10.375
10.4545
28.6424
21.277
29.6982
17.7753
19.9023
13.5792
14.0254
11.0567
10.6584
10.6465
10.4112
10.4859
10.3819
10.4287
10.3748
10.4204
10.3741
10.4499
28.6424
21.2735
29.7009
17.7671
19.8955
13.5613
14.005
11.0418
10.6368
10.6392
10.4094
10.4804
10.3806
10.4244
10.3739
10.4163
10.3731
10.4451
10.3783
28.6425
21.2705
29.7049
17.7612
19.8914
13.5469
13.987
11.029
10.6177
10.6321
10.4075
10.4751
10.3791
10.4203
10.373
10.4124
10.3722
10.4404
10.3768
28.6425
21.2671
29.7093
17.754
19.8869
13.53
13.966
11.0144
10.598
10.6243
10.4054
10.4693
10.3775
10.4157
10.3721
10.408
10.3713
10.4352
10.3751
28.6426
21.2641
29.7152
17.7492
19.8856
13.5178
13.9485
11.003
10.5836
10.6174
10.4034
10.4642
10.3758
10.4117
10.3713
10.404
10.3704
10.4304
10.3735
28.6427
10.5651
10.609
10.4009
10.458
10.3743
10.4071
10.3703
10.3994
10.3694
10.4249
10.6016
10.3986
10.453
10.3731
10.4033
10.3695
10.3955
10.3685
38.2864
34.862
29.1625
22.3609
76.5011
62.5461
138.846
22.4099
72.2693
28.6324
35.7836
29.0186
182.89
115.603
22.5693
32.4735
104.946
47.4741
34.6006
45.4488
115.115
91.8483
83.6738
192.732
40.0297
32.9556
33.9223
188.584
88.5153
73.8822
184.903
88.8041
66.3773
85.6588
186.936
107.01
71.2132
82.7288
51.2506
82.4023
99.2169
61.9197
88.5184
61.8823
75.513
133.283
70.2178
36.8509
65.3583
77.015
120.194
45.9765
165.731
25.1153
73.6326
34.5322
73.2201
64.5046
27.3621
68.0523
72.7631
66.4143
184.127
169.66
94.447
71.4063
209.855
154.696
73.468
221.901
45.2313
131.149
79.6715
48.7893
146.054
121.947
41.9132
102.659
79.555
321.21
25.5791
36.4721
32.2519
28.4933
101.712
72.5736
347.506
20.6642
36.5145
26.4676
26.4516
103.555
72.3068
21.5847
80.6994
52.6239
90.9631
110.623
68.4381
201.498
62.5015
29.9819
34.6067
82.8693
125.456
75.3867
57.5347
45.0243
46.0188
75.204
35.1284
144.925
65.9962
28.7884
40.4368
83.3637
180.962
104.329
61.9203
76.4227
60.8888
94.2275
88.1758
67.7093
30.5108
39.3976
27.8977
24.0685
15.6275
58.5884
37.6197
38.4031
32.8201
29.9825
35.844
35.4465
49.6624
18.9101
28.6422
18.9099
37.8324
27.6662
37.8324
27.6662
30.5328
21.2956
30.5266
28.7171
28.7285
28.7171
28.7285
18.9107
28.6422
18.9093
37.8324
27.6662
37.8324
27.6662
30.5572
21.2946
30.5259
28.7171
28.7284
28.7171
28.7285
18.2235
29.6881
18.2279
29.2518
28.7389
29.2519
28.739
21.8531
17.8317
21.8413
28.609
28.5772
28.609
28.5772
11.4056
19.9553
11.4079
28.8125
28.6444
28.8126
28.6445
15.7752
13.6846
15.7716
28.5522
28.5415
28.5522
28.5415
10.9073
14.1402
10.9078
28.667
28.5845
28.6671
28.5845
18.9111
28.6422
18.9087
37.8324
27.6662
37.8324
27.6662
30.5555
21.2936
30.5249
28.7172
28.7283
28.7172
28.7284
18.2236
29.6873
18.2259
29.2516
28.7387
29.2516
28.7387
21.8449
17.8247
21.8336
28.609
28.5771
28.609
28.5771
11.4022
19.9469
11.4048
28.8122
28.6442
28.8122
28.6442
15.7612
13.6703
15.7582
28.5522
28.5415
28.5522
28.5415
10.9063
14.1251
10.9068
28.6667
28.5842
28.6667
28.5842
12.2854
11.1307
12.2857
28.5392
28.5325
28.5392
28.5325
10.8891
10.7686
10.8898
28.606
28.5531
28.606
28.5531
11.5427
10.6753
11.5434
28.5358
28.5275
28.5358
28.5275
18.9113
28.6422
18.9079
37.8324
27.6662
37.8324
27.6662
30.5533
21.2917
30.5236
28.7172
28.7282
28.7172
28.7282
18.223
29.6869
18.2235
29.2513
28.7385
29.2513
28.7385
21.8341
17.8166
21.8241
28.609
28.5771
28.609
28.5771
11.3982
19.9378
11.4011
28.8118
28.6439
28.8118
28.6439
15.7432
13.6535
15.7417
28.5522
28.5414
28.5522
28.5414
10.9045
14.1068
10.9056
28.6664
28.5838
28.6663
28.5838
12.2648
11.1167
12.2662
28.5391
28.5325
28.5391
28.5325
10.8881
10.748
10.8891
28.6056
28.5528
28.6056
28.5528
11.5386
10.6704
11.5394
28.5358
28.5275
28.5358
28.5275
10.9398
10.4165
10.9407
28.5726
28.5379
28.5726
28.5379
11.3161
10.5043
11.3168
28.5367
28.5259
28.5367
28.5259
10.9867
10.3857
10.9872
28.559
28.5314
28.559
28.5314
11.2211
10.4431
11.2215
28.5382
28.5255
28.5382
28.5255
18.9116
28.6423
18.9072
37.8324
27.6662
37.8324
27.6661
30.5514
21.2905
30.523
28.7173
28.7281
28.7173
28.7281
18.2217
29.6875
18.22
29.2511
28.7383
29.251
28.7382
21.8229
17.808
21.8144
28.609
28.577
28.609
28.577
11.3943
19.9282
11.3979
28.8114
28.6436
28.8114
28.6436
15.7242
13.6352
15.7243
28.5522
28.5414
28.5522
28.5414
10.9027
14.087
10.9044
28.6659
28.5834
28.6659
28.5834
12.2426
11.1019
12.2457
28.5391
28.5324
28.5391
28.5324
10.887
10.7266
10.8886
28.6051
28.5524
28.6051
28.5524
11.5336
10.6649
11.5351
28.5358
28.5274
28.5358
28.5275
10.9397
10.415
10.941
28.5722
28.5377
28.5722
28.5377
11.3122
10.5
11.3131
28.5368
28.5259
28.5368
28.5259
10.9871
10.3847
10.9878
28.5587
28.5312
28.5587
28.5312
11.218
10.4399
11.2182
28.5383
28.5255
28.5383
28.5255
11.0106
10.3773
11.0106
28.5541
28.5292
28.5541
28.5292
11.2064
10.4313
11.2062
28.5385
28.5255
28.5385
28.5255
18.9119
28.6423
18.9064
37.8324
27.6662
37.8324
27.6661
30.5493
21.2888
30.5223
28.7173
28.728
28.7174
28.7279
18.2196
29.6885
18.2157
29.2508
28.7381
29.2508
28.738
21.8111
17.7991
21.8042
28.609
28.5769
28.609
28.5768
11.3902
19.9188
11.3946
28.8111
28.6433
28.811
28.6433
15.7035
13.616
15.7054
28.5522
28.5413
28.5522
28.5413
10.9008
14.0655
10.9032
28.6655
28.583
28.6654
28.5829
12.2171
11.0856
12.2221
28.5391
28.5323
28.5391
28.5324
10.8857
10.7019
10.888
28.6045
28.552
28.6045
28.552
11.5277
10.6582
11.5299
28.5358
28.5274
28.5358
28.5274
10.9396
10.4131
10.9415
28.5718
28.5374
28.5718
28.5373
11.3072
10.4949
11.3086
28.5368
28.5259
28.5368
28.5259
10.9877
10.3834
10.9887
28.5584
28.5309
28.5584
28.5309
11.2138
10.4359
11.2142
28.5384
28.5255
28.5384
28.5255
11.0116
10.3764
11.0116
28.5538
28.529
28.5538
28.529
11.2028
10.4278
11.2022
28.5386
28.5255
28.5386
28.5255
11.005
10.3763
11.0041
28.5553
28.5299
28.5553
28.5299
18.9121
28.6423
18.9056
37.8325
27.6662
37.8324
27.666
30.5476
21.2873
30.522
28.7174
28.7278
28.7175
28.7276
18.2169
29.6904
18.211
29.2506
28.7379
29.2505
28.7377
21.7994
17.7904
21.7941
28.6091
28.5767
28.609
28.5767
11.3866
19.91
11.392
28.8107
28.6431
28.8106
28.643
15.6827
13.5968
15.6866
28.5523
28.5412
28.5523
28.5412
10.8988
14.0442
10.9021
28.665
28.5825
28.6649
28.5825
12.1918
11.0698
12.199
28.5391
28.5323
28.5391
28.5323
10.8844
10.6787
10.8875
28.604
28.5516
28.6039
28.5516
11.5216
10.6513
11.5247
28.5359
28.5274
28.5358
28.5274
10.9396
10.4113
10.942
28.5714
28.537
28.5713
28.537
11.3021
10.4897
11.3041
28.5369
28.5259
28.5369
28.5259
10.9883
10.3821
10.9896
28.5581
28.5307
28.5581
28.5307
11.2094
10.4319
11.21
28.5385
28.5255
28.5385
28.5255
11.0125
10.3755
11.0125
28.5535
28.5288
28.5535
28.5288
11.1986
10.4241
11.1979
28.5387
28.5255
28.5388
28.5255
11.0061
10.3755
11.0047
28.555
28.5297
28.5551
28.5297
11.2649
10.455
11.2632
28.5373
28.5258
28.5373
28.5258
18.9125
28.6423
18.9048
37.8325
27.6662
37.8324
27.666
30.5464
21.2859
30.5224
28.7175
28.7276
28.7176
28.7274
18.2131
29.6934
18.2053
29.2504
28.7378
29.2503
28.7376
21.7887
17.7826
21.7853
28.6092
28.5766
28.6091
28.5765
11.3832
19.9025
11.3899
28.8103
28.6428
28.8102
28.6427
15.6631
13.5788
15.669
28.5523
28.5411
28.5523
28.5411
10.8969
14.0228
10.901
28.6646
28.5821
28.6645
28.582
12.166
11.054
12.1754
28.5391
28.5322
28.5391
28.5322
10.8832
10.6547
10.887
28.6034
28.5512
28.6033
28.5512
11.5151
10.6438