/*--------------------------------*- C++ -*----------------------------------*\
  =========                 |
  \\      /  F ield         | OpenFOAM: The Open Source CFD Toolbox
   \\    /   O peration     | Website:  https://openfoam.org
    \\  /    A nd           | Version:  10
     \\/     M anipulation  |
\*---------------------------------------------------------------------------*/
FoamFile
{
    format      ascii;
    class       volScalarField;
    location    "0.1";
    object      p;
}
// * * * * * * * * * * * * * * * * * * * * * * * * * * * * * * * * * * * * * //

dimensions      [0 2 -2 0 0 0 0];

internalField   nonuniform List<scalar> 
114955
(
134.839
134.477
134.833
134.449
134.821
134.424
134.827
134.859
134.387
134.853
134.403
134.842
134.412
134.826
134.833
134.487
134.803
134.488
134.763
134.482
134.76
134.832
134.387
134.816
134.43
134.788
134.468
134.739
134.076
135.127
134.155
134.008
135.081
134.116
134.873
134.273
134.826
134.324
134.824
134.331
134.861
134.105
135.102
134.222
134.867
134.385
134.775
134.42
134.8
134.392
134.852
134.054
135.013
134.136
134.809
134.313
134.747
134.404
134.741
134.442
134.778
134.925
134.38
134.752
134.439
134.765
134.423
134.792
134.869
134.245
134.755
134.392
134.749
134.459
134.787
134.37
134.763
134.442
134.746
134.481
134.787
134.175
134.859
134.374
134.767
134.45
134.949
134.359
134.99
134.248
135.056
134.183
135.103
134.122
135.131
134.896
134.496
134.864
134.466
134.916
134.334
134.96
134.262
135.003
134.313
134.854
134.381
134.88
134.258
134.96
134.326
134.928
134.281
134.96
134.409
134.906
134.53
134.874
134.43
134.848
134.456
134.821
134.393
134.865
134.21
134.852
134.2
134.911
134.312
134.881
134.411
134.865
134.439
134.801
134.335
135.037
134.46
134.891
134.434
134.837
134.507
134.753
134.465
134.758
134.229
134.941
134.253
134.824
134.277
134.842
134.392
134.864
134.037
134.206
134.326
134.992
134.389
134.933
134.527
134.722
134.713
134.204
134.192
134.222
134.986
134.254
134.885
134.371
134.729
134.69
134.334
134.238
134.245
134.333
134.932
134.417
134.804
134.375
134.896
134.221
135.428
133.996
135.137
134.06
135.047
134.31
134.996
134.166
135.117
134.088
135.162
135.493
133.577
135.168
133.904
134.983
134.053
135.002
134.157
135.001
134.146
135.042
135.436
133.688
135.162
134.044
135.059
133.93
134.3
134.312
135.017
134.284
134.997
135.417
133.689
135.055
134.193
134.353
134.182
134.266
134.209
134.593
134.456
134.755
133.944
135.315
133.825
134.296
134.217
134.263
134.301
134.607
134.513
134.812
134.009
134.969
134.135
134.441
134.22
134.249
134.219
134.183
134.133
134.193
134.057
135.225
134.23
135.025
134.144
134.336
134.255
134.321
134.267
134.286
134.037
134.994
134.109
134.72
134.248
134.34
134.327
134.325
134.296
134.36
135.12
134.216
134.999
134.676
134.393
134.338
134.332
134.311
134.383
134.036
134.955
134.085
134.899
134.15
134.232
134.298
134.083
135.117
134.188
135.188
134.069
135.285
133.945
135.369
133.858
135.406
133.986
135.138
133.94
135.107
134.149
135.143
134.061
135.219
133.991
135.273
135.511
133.869
134.214
133.886
134.803
134.276
134.987
134.186
135.107
134.057
135.183
135.815
133.25
134.038
134.025
134.174
134.155
134.727
134.316
134.925
134.2
135.042
135.845
133.463
134.096
134.12
134.334
134.3
134.284
134.211
134.733
134.31
134.905
135.768
133.584
134.197
134.203
134.398
134.321
134.484
134.377
134.358
134.339
134.858
135.503
133.96
134.591
134.32
134.411
134.39
134.468
134.45
134.293
134.262
134.657
134.051
135.141
134.161
134.562
134.397
134.439
134.405
134.372
134.36
134.245
134.052
135.018
134.156
134.572
134.43
134.446
134.458
134.481
134.456
134.46
134.152
135.12
134.225
134.99
134.249
134.542
134.594
134.302
134.369
134.499
135.078
134.13
134.915
134.187
134.573
134.593
134.468
134.507
134.632
134.244
134.972
134.5
134.514
134.562
134.373
134.45
135.388
134.044
135.126
134.162
135.115
134.104
135.275
133.933
135.383
133.825
135.436
135.588
133.399
135.295
133.655
135.237
133.861
135.244
133.869
135.345
133.851
135.359
135.861
133.151
134.026
133.938
134.221
134.127
134.859
134.227
135.101
134.055
135.213
135.936
133.687
134.425
134.225
134.486
134.361
134.334
134.107
135.117
134.093
135.107
135.904
133.801
134.287
134.389
134.398
134.483
134.461
134.366
134.817
134.308
135.009
135.839
133.857
134.582
134.481
134.461
134.51
134.428
134.507
134.372
134.362
134.834
135.693
133.791
134.69
134.56
134.667
134.565
134.631
134.583
134.624
134.356
134.816
133.987
134.797
134.531
134.61
134.635
134.651
134.624
134.498
134.542
134.35
133.9
135.213
134.112
134.737
134.585
134.581
134.585
134.659
134.607
134.458
134.027
134.995
134.169
134.671
134.484
134.58
134.602
134.624
134.65
134.765
135.173
134.14
134.638
134.624
134.655
134.601
134.081
134.744
134.74
134.605
134.612
135.377
134.061
135.165
134.147
135.184
134.056
135.339
133.865
135.45
133.761
135.502
133.929
135.531
133.451
135.221
133.76
135.188
133.943
135.212
133.94
135.33
133.892
135.372
133.775
135.834
133.434
134.102
134.012
134.288
134.18
134.889
134.126
135.13
133.973
135.263
133.797
135.914
133.752
134.303
134.312
134.462
134.475
134.392
134.162
135.105
134.121
135.113
133.817
135.918
133.937
134.58
134.813
134.927
134.489
134.601
134.303
134.807
134.23
135.023
135.837
133.952
134.707
134.831
134.674
134.774
134.535
134.476
134.355
134.342
134.836
135.676
134.002
134.879
134.783
134.862
134.602
134.647
134.697
134.617
134.359
134.841
133.98
134.998
134.588
134.77
134.799
134.566
134.619
134.478
134.394
133.908
135.206
134.262
134.829
134.723
134.759
134.332
134.617
134.69
134.067
135.02
134.201
134.869
134.513
134.689
134.701
134.699
135.202
134.22
134.673
134.664
134.661
134.17
134.833
134.827
135.341
133.931
135.167
134.067
135.212
133.912
135.412
133.804
135.503
133.726
135.538
135.177
133.925
135.583
133.783
135.288
133.637
135.35
133.826
135.326
133.798
135.416
133.774
135.446
135.159
133.886
135.584
133.706
134.392
134.043
134.391
134.049
135.256
134.02
135.294
133.932
135.323
135.288
133.675
135.797
133.725
134.618
134.447
134.637
134.327
134.954
134.113
135.117
134.02
135.19
135.249
133.766
135.789
133.997
134.805
134.607
134.567
134.602
134.414
134.23
135.078
134.155
135.104
135.245
133.716
135.745
134.002
134.814
134.671
134.664
134.513
134.642
134.34
134.773
134.323
134.878
135.13
133.901
135.591
133.777
134.892
134.518
134.657
134.601
134.6
134.51
134.394
134.327
134.869
135.07
134.025
135.388
133.927
135.13
134.357
134.737
134.609
134.569
134.512
134.528
134.29
134.333
134.996
134.025
135.23
133.903
135.102
134.034
134.847
134.511
134.613
134.542
134.57
134.429
133.998
135.207
134.069
135.086
134.352
134.688
134.617
134.577
134.722
134.01
134.771
134.766
134.665
135.333
133.946
135.407
133.904
135.442
133.859
135.49
133.753
135.56
133.678
135.594
135.071
134.053
135.338
133.915
135.224
134.009
135.236
133.901
135.354
133.846
135.436
133.802
135.466
135.105
134.049
135.46
133.915
135.178
133.735
135.236
133.999
135.191
133.958
135.305
133.868
135.382
135.099
133.994
135.413
133.921
134.582
134.193
134.489
134.078
135.183
134.062
135.226
134.023
135.224
135.089
133.996
135.413
133.892
134.82
134.447
134.617
134.319
134.859
134.292
135.014
134.114
135.158
135.069
134.008
135.381
133.963
134.883
134.469
134.602
134.428
134.447
134.245
135.019
134.292
134.949
135.055
134.052
135.376
133.917
135.226
134.257
134.685
134.452
134.554
134.295
134.719
134.361
134.947
134.981
134.086
135.178
134.017
134.902
134.034
134.792
134.444
134.536
134.401
134.378
134.246
134.394
134.969
134.109
135.228
134.009
135.34
134.175
135.148
134.337
134.624
134.423
134.522
134.351
134.017
135.037
134.074
134.794
134.162
134.681
134.54
134.524
134.444
134.552
134.808
134.587
134.547
134.553
135.308
133.912
135.376
133.884
135.44
133.789
135.535
133.708
135.597
133.647
135.624
135.096
134.024
135.411
133.836
135.47
133.783
135.505
133.771
135.507
133.723
135.533
133.699
135.542
135.071
134.036
135.339
133.904
135.216
134.003
135.241
133.901
135.359
133.853
135.424
133.81
135.448
134.486
134.351
135.124
133.977
135.491
133.886
135.25
133.745
135.311
133.903
135.295
133.898
135.329
133.877
135.351
134.481
134.354
135.094
134.019
135.426
133.931
135.178
133.835
135.192
133.977
135.188
134.008
135.247
133.994
135.257
134.475
134.349
135.088
133.998
135.438
133.925
135.225
133.836
135.247
133.963
135.203
134.08
135.13
134.072
135.152
135.029
134.013
135.276
133.849
135.128
133.779
135.161
133.982
135.117
134.143
135.084
134.218
135.025
134.997
134.076
135.258
133.97
135.338
134.074
135.168
134.053
135.111
134.186
134.973
134.209
134.986
134.961
134.045
135.175
133.902
135.182
133.908
135.071
133.937
135.103
134.144
135.023
134.153
134.442
133.989
135.255
134.028
135.225
134.198
134.999
134.457
134.52
134.407
134.495
133.882
135.178
134.186
134.559
135.281
133.967
135.437
133.879
135.519
133.799
135.577
133.707
135.626
133.645
135.645
133.633
135.011
134.123
135.248
133.976
135.303
133.956
135.356
133.874
135.442
133.8
135.508
133.748
135.537
133.728
134.49
134.402
134.995
134.14
135.244
133.996
135.318
133.965
135.35
133.941
135.388
133.856
135.448
133.792
135.481
134.484
134.387
134.995
134.119
135.209
134.026
135.052
134.143
135.077
134.033
135.235
133.957
135.326
133.914
135.354
134.479
134.395
134.968
134.146
135.191
134.069
135.087
134.184
135.061
134.171
135.175
134.053
135.257
133.964
135.313
134.471
134.378
134.97
134.122
135.171
134.05
134.982
134.203
134.917
134.232
134.992
134.12
135.14
134.094
135.169
134.464
134.387
134.942
134.152
135.166
134.057
135.201
134.201
135.01
134.27
135.009
134.208
135.097
134.116
135.172
134.934
134.124
135.12
134.035
135.065
134.09
134.924
134.238
134.907
134.272
134.971
134.271
135.016
134.909
134.153
135.131
134.064
135.216
134.13
135.149
134.241
134.978
134.239
135.025
134.174
135.086
134.009
135.138
134.029
135.048
134.121
134.934
134.261
134.986
134.267
135.006
134.182
134.984
134.165
135.022
135.311
133.894
135.456
133.805
135.537
133.729
135.596
133.667
135.634
133.618
135.653
133.592
134.487
134.375
135.045
134.067
135.332
133.881
135.487
133.786
135.55
133.739
135.576
133.691
135.588
133.665
135.589
133.659
134.48
134.368
135.021
134.074
135.277
133.915
135.385
133.866
135.435
133.812
135.477
133.771
135.507
133.737
135.524
133.719
134.474
134.365
135.026
134.064
135.31
133.898
135.416
133.843
135.454
133.829
135.456
133.803
135.457
133.789
135.457
133.79
135.459
134.467
134.357
135.005
134.069
135.268
133.91
135.349
133.883
135.369
133.879
135.37
133.873
135.381
133.866
135.387
133.857
135.394
134.46
134.359
134.99
134.078
135.265
133.926
135.36
133.903
135.383
133.901
135.362
133.918
135.328
133.92
135.324
133.928
135.34
134.452
134.346
134.972
134.064
135.207
133.913
135.288
133.875
135.315
133.909
135.296
133.962
135.261
134.004
135.236
134.012
135.257
134.948
134.094
135.192
133.967
135.313
133.953
135.327
133.966
135.28
134.014
135.202
134.045
135.193
134.064
135.231
134.938
134.061
135.168
133.918
135.263
133.884
135.273
133.914
135.247
134.024
135.157
134.144
135.054
134.179
135.11
133.961
135.279
133.942
135.295
134.004
135.209
134.127
135.025
134.206
135.015
134.226
135.074
134.497
134.421
134.488
134.421
134.974
134.199
135.228
134.035
135.391
133.921
135.49
133.829
135.56
133.739
135.604
133.68
135.619
133.665
134.48
134.411
134.964
134.188
135.192
134.049
135.315
133.967
135.395
133.883
135.464
133.81
135.515
133.755
135.54
133.732
134.473
134.413
134.94
134.205
135.173
134.07
135.308
133.99
135.387
133.917
135.443
133.837
135.487
133.784
135.505
133.775
134.466
134.402
134.934
134.195
135.144
134.081
135.206
134.047
135.263
133.978
135.335
133.913
135.391
133.867
135.417
133.853
135.409
133.878
134.46
134.407
134.909
134.214
135.119
134.111
135.212
134.076
135.264
134.022
135.322
133.947
135.369
133.894
135.393
133.888
135.385
133.925
134.452
134.391
134.911
134.192
135.109
134.093
135.148
134.085
135.175
134.057
135.222
134.007
135.279
133.975
135.304
133.97
135.297
133.996
134.445
134.396
134.881
134.214
135.091
134.12
135.192
134.103
135.209
134.084
135.236
134.032
135.276
133.989
135.304
133.989
135.306
134.025
134.436
134.375
134.893
134.177
135.093
134.078
135.151
134.061
135.153
134.073
135.168
134.068
135.201
134.06
135.223
134.061
135.228
134.074
134.867
134.198
135.082
134.104
135.194
134.082
135.222
134.083
135.206
134.064
135.227
134.044
135.249
134.06
135.265
134.08
134.044
135.188
134.014
135.19
134.033
135.169
134.068
135.185
134.088
135.197
134.099
135.212
134.484
134.379
134.475
134.374
134.466
134.366
135.033
134.082
135.299
133.901
135.445
133.8
135.52
133.74
135.564
133.691
135.588
133.655
135.598
133.632
134.458
134.363
135.019
134.085
135.289
133.907
135.441
133.805
135.512
133.753
135.543
133.714
135.553
133.692
135.552
133.683
134.45
134.356
135.005
134.082
135.261
133.917
135.391
133.839
135.451
133.795
135.483
133.763
135.5
133.737
135.511
133.719
134.443
134.355
134.99
134.09
135.249
133.928
135.389
133.848
135.447
133.81
135.467
133.785
135.469
133.774
135.466
133.769
135.469
133.768
134.436
134.347
134.978
134.084
135.226
133.93
135.342
133.871
135.395
133.843
135.41
133.831
135.414
133.822
135.421
133.81
135.434
133.8
134.429
134.346
134.955
134.099
135.208
133.948
135.335
133.888
135.39
133.86
135.398
133.855
135.386
133.856
135.382
133.856
135.395
133.849
134.421
134.336
134.945
134.085
135.182
133.94
135.3
133.879
135.349
133.871
135.35
133.889
135.335
133.905
135.33
133.901
135.354
133.88
134.414
134.335
134.928
134.097
135.167
133.96
135.298
133.903
135.347
133.895
135.34
133.913
135.309
133.933
135.303
133.937
135.329
133.919
134.924
134.073
135.16
133.931
135.278
133.876
135.316
133.883
135.305
133.933
135.267
133.98
135.247
133.987
135.282
133.952
133.944
135.277
133.895
135.32
133.91
135.295
133.964
135.235
134.005
135.226
134.013
135.265
134.466
134.448
134.456
134.439
134.447
134.435
134.93
134.295
135.153
134.158
135.284
134.041
135.372
133.939
135.438
133.853
135.478
133.799
135.492
133.78
134.439
134.427
134.918
134.289
135.129
134.163
135.243
134.063
135.317
133.975
135.379
133.898
135.422
133.845
135.442
133.823
134.431
134.426
134.896
134.299
135.104
134.18
135.226
134.078
135.305
133.99
135.365
133.913
135.405
133.865
135.419
133.853
134.424
134.418
134.888
134.289
135.08
134.186
135.18
134.102
135.245
134.026
135.303
133.959
135.346
133.914
135.367
133.898
135.364
133.916
134.417
134.418
134.865
134.301
135.058
134.202
135.168
134.119
135.24
134.042
135.297
133.973
135.335
133.932
135.351
133.925
135.347
133.947
134.409
134.406
134.864
134.284
135.047
134.194
135.135
134.125
135.195
134.061
135.243
134.009
135.281
133.976
135.301
133.967
135.301
133.986
134.402
134.406
134.843
134.296
135.029
134.209
135.138
134.135
135.203
134.072
135.249
134.019
135.281
133.988
135.298
133.986
135.301
134.004
134.394
134.39
134.851
134.267
135.04
134.177
135.132
134.109
135.18
134.066
135.212
134.038
135.239
134.022
135.255
134.02
135.261
134.035
134.386
134.388
134.831
134.276
135.026
134.19
135.138
134.12
135.198
134.072
135.227
134.041
135.249
134.024
135.264
134.027
135.275
134.039
134.146
135.149
134.078
135.193
134.047
135.209
134.04
135.224
134.043
135.235
134.05
135.245
134.443
134.377
134.43
134.366
134.419
134.357
134.409
134.35
134.4
134.343
135.013
134.1
135.248
133.93
135.354
133.847
135.41
133.809
135.44
133.784
135.451
133.765
135.453
133.749
134.392
134.339
134.997
134.103
135.23
133.937
135.338
133.855
135.393
133.821
135.42
133.802
135.425
133.792
135.422
133.783
134.384
134.333
134.982
134.102
135.209
133.942
135.311
133.87
135.361
133.844
135.385
133.83
135.393
133.819
135.397
133.807
134.376
134.33
134.965
134.106
135.188
133.954
135.297
133.88
135.348
133.854
135.369
133.846
135.371
133.844
135.368
133.839
135.369
133.829
134.369
134.324
134.954
134.101
135.165
133.96
135.267
133.896
135.318
133.874
135.335
133.874
135.337
133.873
135.341
133.865
135.351
133.852
134.362
134.322
134.938
134.106
135.144
133.973
135.253
133.905
135.308
133.883
135.323
133.886
135.32
133.893
135.318
133.892
135.327
133.88
134.354
134.314
134.93
134.097
135.131
133.965
135.234
133.904
135.282
133.895
135.292
133.91
135.287
133.923
135.289
133.919
135.306
133.902
134.347
134.309
134.919
134.097
135.122
133.967
135.227
133.908
135.277
133.9
135.285
133.918
135.275
133.936
135.274
133.938
135.291
133.922
134.339
134.298
134.914
134.082
135.116
133.951
135.216
133.899
135.258
133.903
135.259
133.936
135.246
133.963
135.245
133.966
135.27
133.944
133.948
135.214
133.898
135.258
133.906
135.257
133.942
135.237
133.972
135.236
133.978
135.262
134.398
134.495
134.385
134.484
134.373
134.475
134.363
134.466
134.354
134.459
134.88
134.452
135.021
134.336
135.085
134.23
135.154
134.129
135.211
134.052
135.247
134.004
135.259
133.985
134.345
134.452
134.868
134.447
135.003
134.337
135.061
134.239
135.125
134.146
135.18
134.075
135.216
134.029
135.231
134.009
134.337
134.448
134.851
134.449
134.983
134.345
135.045
134.246
135.112
134.153
135.168
134.083
135.204
134.042
135.217
134.029
134.329
134.44
134.841
134.442
134.963
134.348
135.023
134.254
135.084
134.168
135.137
134.106
135.173
134.067
135.19
134.052
135.187
134.064
134.322
134.437
134.825
134.445
134.943
134.358
135.01
134.26
135.076
134.174
135.13
134.113
135.165
134.078
135.18
134.069
135.177
134.083
134.314
134.427
134.82
134.433
134.934
134.351
134.997
134.258
135.056
134.181
135.105
134.129
135.138
134.099
135.156
134.09
135.156
134.104
134.307
134.423
134.805
134.435
134.915
134.362
134.99
134.262
135.054
134.185
135.104
134.134
135.136
134.108
135.151
134.103
135.154
134.116
134.299
134.411
134.805
134.417
134.918
134.343
134.989
134.247
135.046
134.18
135.088
134.141
135.117
134.122
135.132
134.12
135.136
134.132
134.291
134.406
134.792
134.417
134.91
134.343
134.986
134.249
135.048
134.181
135.092
134.143
135.119
134.127
135.133
134.127
135.141
134.137
134.316
134.994
134.225
135.049
134.167
135.085
134.141
135.107
134.135
135.12
134.139
135.128
134.33
134.313
134.317
134.302
134.305
134.292
134.296
134.284
134.286
134.277
134.983
134.066
135.097
133.948
135.157
133.93
135.206
133.938
135.227
133.953
135.228
133.958
135.222
133.948
134.277
134.271
134.969
134.064
135.081
133.951
135.141
133.935
135.19
133.946
135.211
133.965
135.21
133.975
135.203
133.969
134.269
134.264
134.956
134.061
135.066
133.952
135.124
133.941
135.171
133.958
135.19
133.98
135.191
133.991
135.188
133.985
134.261
134.259
134.943
134.061
135.049
133.956
135.109
133.947
135.158
133.965
135.177
133.99
135.176
134.006
135.171
134.004
135.17
133.985
134.254
134.254
134.933
134.057
135.035
133.956
135.093
133.952
135.142
133.975
135.157
134.006
135.157
134.023
135.155
134.021
135.16
134
134.246
134.248
134.921
134.055
135.021
133.958
135.081
133.956
135.131
133.979
135.147
134.013
135.145
134.035
135.142
134.036
135.148
134.017
134.239
134.242
134.912
134.048
135.008
133.955
135.069
133.957
135.116
133.987
135.129
134.027
135.126
134.052
135.127
134.053
135.138
134.032
134.23
134.235
134.904
134.043
134.999
133.951
135.065
133.952
135.111
133.988
135.123
134.03
135.119
134.058
135.119
134.063
135.131
134.044
134.222
134.226
134.896
134.034
134.989
133.943
135.056
133.95
135.098
133.993
135.107
134.042
135.102
134.074
135.105
134.079
135.121
134.058
133.935
135.055
133.944
135.097
133.99
135.105
134.042
135.098
134.078
135.101
134.086
135.118
134.285
134.526
134.272
134.514
134.26
134.504
134.25
134.494
134.24
134.486
134.684
134.665
134.742
134.535
134.795
134.443
134.849
134.377
134.898
134.326
134.925
134.293
134.932
134.277
134.231
134.478
134.673
134.658
134.729
134.532
134.78
134.443
134.835
134.38
134.883
134.333
134.911
134.303
134.92
134.288
134.223
134.471
134.66
134.655
134.715
134.531
134.768
134.444
134.826
134.38
134.876
134.336
134.905
134.309
134.914
134.297
134.215
134.464
134.65
134.648
134.703
134.528
134.754
134.444
134.813
134.383
134.861
134.342
134.891
134.318
134.903
134.307
134.898
134.311
134.208
134.458
134.639
134.646
134.69
134.529
134.743
134.444
134.806
134.383
134.857
134.344
134.886
134.323
134.898
134.316
134.895
134.321
134.2
134.45
134.631
134.638
134.682
134.524
134.733
134.439
134.797
134.383
134.846
134.349
134.876
134.33
134.89
134.324
134.889
134.331
134.193
134.444
134.62
134.635
134.672
134.524
134.724
134.437
134.793
134.382
134.843
134.35
134.873
134.334
134.888
134.331
134.888
134.339
134.185
134.435
134.614
134.624
134.667
134.513
134.723
134.427
134.789
134.377
134.837
134.351
134.865
134.338
134.881
134.337
134.884
134.346
134.177
134.428
134.603
134.62
134.658
134.509
134.719
134.424
134.788
134.375
134.836
134.351
134.865
134.341
134.881
134.343
134.886
134.351
134.494
134.722
134.412
134.788
134.367
134.834
134.348
134.861
134.344
134.877
134.348
134.883
134.167
133.616
134.155
133.605
134.703
133.676
134.836
133.904
134.915
134.143
133.595
134.69
133.669
134.822
133.899
134.901
134.046
134.957
134.146
134.133
133.586
134.677
133.663
134.808
133.896
134.888
134.045
134.944
134.148
134.953
134.208
134.941
134.232
134.123
133.578
134.665
133.659
134.796
133.894
134.875
134.045
134.933
134.149
134.942
134.213
134.931
134.24
134.919
134.235
134.114
133.571
134.653
133.655
134.783
133.894
134.862
134.046
134.926
134.148
134.93
134.219
134.921
134.249
134.909
134.246
134.903
134.106
133.564
134.642
133.651
134.771
133.893
134.849
134.049
134.914
134.152
134.918
134.225
134.91
134.257
134.901
134.256
134.897
134.227
134.098
133.558
134.632
133.648
134.759
133.893
134.837
134.05
134.902
134.157
134.908
134.231
134.9
134.266
134.892
134.268
134.889
134.239
134.091
133.552
134.622
133.644
134.748
133.892
134.824
134.052
134.89
134.163
134.897
134.239
134.891
134.276
134.883
134.279
134.883
134.25
134.892
134.083
133.546
134.613
133.639
134.74
133.891
134.813
134.05
134.881
134.165
134.889
134.243
134.883
134.284
134.875
134.288
134.878
134.26
134.888
134.076
133.539
134.603
133.634
134.731
133.886
134.805
134.048
134.871
134.17
134.878
134.25
134.873
134.292
134.868
134.297
134.875
134.271
134.888
134.068
133.532
134.595
133.628
134.721
133.867
134.812
134.046
134.866
134.171
134.873
134.253
134.867
134.296
134.864
134.304
134.872
134.28
134.886
134.06
134.858
134.175
134.863
134.259
134.858
134.303
134.858
134.313
134.87
134.29
134.174
134.86
134.261
134.853
134.306
134.855
134.319
134.869
134.062
133.691
134.049
133.678
134.223
134.142
134.609
134.57
134.832
134.038
133.667
134.211
134.131
134.598
134.56
134.822
134.76
134.932
134.831
134.027
133.657
134.2
134.121
134.587
134.552
134.813
134.754
134.925
134.827
134.947
134.84
134.937
134.83
134.018
133.648
134.19
134.112
134.578
134.544
134.804
134.748
134.918
134.823
134.942
134.838
134.935
134.831
134.918
134.821
134.009
133.64
134.181
134.103
134.568
134.538
134.797
134.744
134.913
134.819
134.937
134.837
134.932
134.833
134.917
134.825
134.908
134.001
133.633
134.172
134.096
134.56
134.532
134.79
134.74
134.908
134.816
134.933
134.836
134.93
134.835
134.918
134.83
134.91
134.827
133.994
133.626
134.164
134.088
134.551
134.527
134.784
134.737
134.903
134.814
134.929
134.836
134.929
134.838
134.919
134.836
134.913
134.833
133.987
133.619
134.156
134.082
134.543
134.522
134.779
134.735
134.899
134.812
134.927
134.837
134.928
134.843
134.922
134.844
134.917
134.84
134.916
133.979
133.613
134.149
134.075
134.534
134.519
134.775
134.733
134.895
134.811
134.924
134.837
134.928
134.85
134.93
134.853
134.93
134.848
134.919
133.972
133.606
134.143
134.069
134.526
134.515
134.779
134.729
134.892
134.809
134.922
134.838
134.928
134.855
134.939
134.862
134.939
134.856
134.924
133.965
133.6
134.136
134.061
134.517
134.509
134.78
134.726
134.89
134.808
134.921
134.839
134.928
134.86
134.948
134.871
134.948
134.864
134.929
133.957
134.887
134.807
134.92
134.841
134.928
134.865
134.955
134.878
134.956
134.874
134.806
134.92
134.845
134.936
134.871
134.96
134.885
134.963
134.671
134.449
134.648
134.647
134.615
134.647
134.64
134.633
134.761
134.604
134.509
134.62
134.634
134.618
134.595
134.641
134.611
134.636
134.41
134.67
134.808
134.713
134.841
134.673
134.676
134.54
134.664
134.681
134.631
134.834
134.602
134.63
134.642
134.631
134.607
134.612
134.794
134.597
134.591
134.575
134.563
134.734
134.613
134.599
134.587
134.629
134.694
134.628
134.636
134.615
134.618
134.618
134.714
134.751
134.59
134.584
134.614
134.707
134.647
134.631
134.618
134.645
134.596
134.703
134.665
134.666
134.6
134.699
134.65
134.595
134.585
134.598
134.666
134.629
134.604
134.601
134.632
134.712
134.848
134.669
134.626
134.695
134.639
134.662
134.649
134.842
134.6
134.669
134.621
134.636
134.624
134.624
134.797
134.611
134.664
134.571
134.606
134.51
134.742
134.315
134.606
134.562
134.566
134.551
134.626
134.695
134.541
134.559
134.525
134.57
134.65
134.695
134.66
134.437
134.652
134.72
134.684
134.659
134.554
134.632
134.653
134.681
134.726
134.625
134.616
134.618
134.597
134.638
134.712
134.634
134.65
134.472
134.651
134.569
134.511
134.593
134.539
134.855
134.058
134.851
134.578
135.01
134.574
135.005
135.239
133.686
135.234
133.848
135.61
133.843
135.606
134.842
134.045
134.838
134.566
134.997
134.562
134.993
135.226
133.674
135.222
133.835
135.596
133.832
135.592
134.657
134.219
134.653
134.755
135.089
134.751
135.086
134.722
134.138
134.718
134.399
134.842
134.396
134.838
134.484
134.606
134.48
134.823
134.667
134.819
134.664
134.399
134.566
134.395
134.671
134.493
134.668
134.49
134.389
134.829
134.385
134.867
134.488
134.864
134.485
134.831
134.034
134.827
134.554
134.985
134.55
134.981
135.214
133.663
135.21
133.825
135.583
133.822
135.579
134.645
134.207
134.641
134.742
135.076
134.739
135.073
134.711
134.127
134.707
134.388
134.83
134.385
134.826
134.472
134.595
134.469
134.811
134.655
134.808
134.652
134.389
134.557
134.386
134.661
134.483
134.658
134.479
134.378
134.819
134.375
134.857
134.477
134.854
134.475
134.283
134.758
134.28
134.764
134.361
134.762
134.359
134.339
134.93
134.337
134.894
134.424
134.892
134.422
134.261
134.829
134.259
134.796
134.33
134.794
134.328
134.82
134.024
134.816
134.544
134.974
134.54
134.97
135.203
133.653
135.199
133.816
135.57
133.813
135.566
134.633
134.197
134.629
134.731
135.064
134.728
135.061
134.701
134.117
134.697
134.378
134.819
134.375
134.815
134.461
134.584
134.458
134.799
134.644
134.797
134.641
134.38
134.549
134.376
134.651
134.473
134.649
134.47
134.369
134.81
134.366
134.847
134.467
134.844
134.464
134.276
134.751
134.273
134.757
134.354
134.755
134.351
134.331
134.922
134.329
134.886
134.415
134.884
134.413
134.256
134.825
134.254
134.79
134.325
134.789
134.323
134.342
134.945
134.34
134.892
134.411
134.89
134.409
134.263
134.838
134.261
134.792
134.327
134.791
134.325
134.355
134.937
134.354
134.879
134.414
134.879
134.413
134.267
134.83
134.267
134.781
134.329
134.781
134.329
134.81
134.014
134.806
134.534
134.965
134.53
134.961
135.194
133.644
135.19
133.808
135.558
133.805
135.554
134.622
134.187
134.618
134.72
135.053
134.717
135.049
134.691
134.108
134.688
134.368
134.808
134.365
134.805
134.451
134.574
134.448
134.789
134.633
134.786
134.63
134.372
134.541
134.368
134.643
134.464
134.641
134.46
134.36
134.801
134.356
134.838
134.458
134.835
134.455
134.269
134.746
134.266
134.751
134.346
134.748
134.343
134.324
134.916
134.321
134.879
134.408
134.878
134.406
134.251
134.821
134.249
134.786
134.319
134.784
134.317
134.336
134.94
134.334
134.887
134.405
134.885
134.403
134.26
134.837
134.258
134.79
134.324
134.789
134.322
134.351
134.934
134.349
134.876
134.41
134.876
134.408
134.267
134.831
134.266
134.781
134.329
134.781
134.328
134.352
134.918
134.352
134.86
134.406
134.86
134.405
134.255
134.822
134.255
134.77
134.318
134.77
134.318
134.801
134.005
134.797
134.526
134.956
134.522
134.952
135.184
133.636
135.18
133.801
135.546
133.798
135.542
134.612
134.177
134.608
134.71
135.042
134.707
135.038
134.683
134.1
134.679
134.36
134.798
134.357
134.795
134.442
134.565
134.438
134.779
134.623
134.776
134.62
134.363
134.535
134.359
134.636
134.455
134.634
134.451
134.351
134.794
134.347
134.83
134.448
134.827
134.445
134.263
134.741
134.259
134.745
134.339
134.743
134.336
134.317
134.911
134.314
134.873
134.401
134.872
134.398
134.246
134.817
134.243
134.782
134.314
134.78
134.312
134.33
134.936
134.328
134.882
134.399
134.88
134.397
134.258
134.836
134.256
134.788
134.321
134.788
134.319
134.346
134.931
134.345
134.873
134.405
134.873
134.404
134.267
134.833
134.266
134.782
134.328
134.783
134.327
134.349
134.918
134.348
134.86
134.403
134.86
134.402
134.257
134.826
134.256
134.773
134.32
134.774
134.319
134.335
134.909
134.335
134.851
134.389
134.852
134.389
134.793
133.997
134.788
134.518
134.947
134.514
134.943
135.176
133.629
135.171
133.794
135.535
133.792
135.53
134.603
134.169
134.599
134.7
135.032
134.697
135.028
134.675
134.093
134.67
134.351
134.789
134.349
134.785
134.432
134.556
134.428
134.77
134.613
134.767
134.61
134.355
134.529
134.351
134.63
134.446
134.627
134.443
134.342
134.787
134.338
134.822
134.439
134.82
134.435
134.256
134.738
134.252
134.74
134.332
134.739
134.329
134.31
134.906
134.307
134.868
134.393
134.866
134.39
134.241
134.814
134.238
134.778
134.309
134.777
134.307
134.325
134.932
134.323
134.877
134.393
134.876
134.391
134.255
134.835
134.253
134.788
134.318
134.787
134.317
134.342
134.93
134.34
134.871
134.401
134.871
134.399
134.266
134.835
134.265
134.784
134.327
134.785
134.326
134.346
134.918
134.344
134.86
134.4
134.86
134.399
134.257
134.831
134.257
134.777
134.32
134.778
134.32
134.333
134.911
134.333
134.853
134.388
134.854
134.388
134.23
134.829
134.23
134.771
134.299
134.773
134.3
134.785
133.989
134.78
134.51
134.94
134.506
134.935
135.167
133.622
135.163
133.789
135.524
133.786
135.519
134.594
134.16
134.591
134.692
135.022
134.689
135.019
134.667
134.085
134.662
134.344
134.78
134.341
134.776
134.424
134.547
134.419
134.761
134.604
134.758
134.6
134.347
134.524
134.342
134.624
134.437
134.621
134.433
134.333
134.781
134.329
134.816
134.43
134.814
134.426
134.25
134.735
134.246
134.736
134.326
134.735
134.322
134.303
134.902
134.299
134.862
134.386
134.861
134.383
134.237
134.812
134.234