/*--------------------------------*- C++ -*----------------------------------*\
  =========                 |
  \\      /  F ield         | OpenFOAM: The Open Source CFD Toolbox
   \\    /   O peration     | Website:  https://openfoam.org
    \\  /    A nd           | Version:  10
     \\/     M anipulation  |
\*---------------------------------------------------------------------------*/
FoamFile
{
    format      ascii;
    class       volVectorField;
    location    "0.1";
    object      U;
}
// * * * * * * * * * * * * * * * * * * * * * * * * * * * * * * * * * * * * * //

dimensions      [0 1 -1 0 0 0 0];

internalField   nonuniform List<vector> 
114955
(
(-0.106148 -0.00112409 0.00569081)
(0.119108 -0.0186635 -0.0160052)
(-0.0444811 0.0121031 0.00448449)
(0.0758136 -0.0233718 -0.0100307)
(-0.0162922 0.0258525 -0.0271543)
(0.047812 -0.0249924 0.00610033)
(0.0162805 0.0164461 -0.0187321)
(-0.123409 -0.0207582 0.0214253)
(0.131354 -0.00519892 -0.0302144)
(-0.0534272 -0.00960067 0.0131286)
(0.0768794 -0.00648523 -0.0206199)
(-0.00435983 0.00381061 -0.0166889)
(0.0250622 -0.00753959 -0.00335159)
(0.0282665 0.008804 -0.00370326)
(-0.114314 -0.0273309 0.00414565)
(0.130257 -0.000443623 -0.0132284)
(-0.0453162 -0.00705124 0.013358)
(0.0889425 -0.0150459 -0.0213994)
(-0.0171858 0.0339013 0.000680461)
(0.0526934 -0.0162155 -0.0179064)
(0.0125215 0.0293415 -0.00482061)
(-0.130422 -0.0380842 0.000283931)
(0.151414 0.00614514 -0.0130328)
(-0.0671703 -0.0210815 0.0125809)
(0.116522 0.00926725 -0.0178955)
(-0.00485588 0.0168111 -0.0148305)
(0.0207587 -0.01091 -0.0105254)
(0.0264608 0.0118915 -0.0033237)
(0.429606 -0.0190396 -0.00628184)
(-0.283565 0.00274653 0.0343724)
(0.273638 -0.0219504 -0.0323979)
(0.409609 -0.0282953 -0.0162385)
(-0.267444 0.0192736 0.0429547)
(0.319019 -0.0258434 -0.055477)
(-0.198857 0.0110433 0.0259675)
(0.126525 -0.026713 -0.0343343)
(-0.0570742 0.0078829 0.0171477)
(0.0354496 -0.00466142 -0.0144109)
(0.00297777 -0.0047276 0.0106886)
(0.0506593 -0.0123458 -0.0315074)
(0.0275609 0.0101152 0.0247094)
(0.452279 0.00762272 0.0746568)
(-0.272863 -0.0323706 0.018148)
(0.267833 0.00389196 0.00838126)
(-0.147858 -0.0118976 0.0134913)
(0.113463 -0.0104409 -0.0217045)
(-0.0463395 0.00947766 0.0182661)
(0.0357441 -0.0290534 -0.0177138)
(0.00880381 0.0371189 0.0103697)
(0.0585773 -0.0426285 -0.0109148)
(0.0034468 0.0245964 -0.034597)
(0.411214 0.0191799 0.0592317)
(-0.270995 -0.0714931 -0.01657)
(0.339204 0.00972745 -0.0237765)
(-0.210843 -0.0438189 0.0118687)
(0.148111 0.0106617 -0.0278308)
(-0.0750009 -0.00973609 -0.00286761)
(0.0625868 -0.00695584 -0.0110009)
(-0.0095217 -0.000322814 -0.00268343)
(0.0394435 -0.0188028 -0.00828553)
(0.0315975 0.000764475 0.0139592)
(-0.145824 -0.0811947 -0.000121837)
(0.148347 0.0399024 0.00133206)
(-0.0619914 -0.0140922 0.0125429)
(0.0475097 -0.00405826 -0.0674874)
(-0.00841214 -0.00307375 0.155247)
(0.0730446 -0.0398584 -0.0221231)
(0.03612 -0.0140962 0.0519413)
(-0.17777 -0.0798112 -0.0191167)
(0.212883 0.0229157 -0.00646943)
(-0.116977 -0.0118125 -0.048015)
(0.0696158 -0.0107527 0.076722)
(0.00263061 -0.0107854 0.094537)
(0.0513675 -0.0259486 -0.04583)
(0.0498935 -0.00589035 0.0281107)
(0.213529 -0.0202008 0.0512341)
(-0.0938404 -0.0226599 -0.057793)
(0.0657934 -0.00291493 0.0709243)
(0.00994633 0.00530627 0.0887657)
(0.0543948 -0.00151969 -0.048231)
(0.0496941 -0.0126209 0.0293467)
(0.226735 -0.0164882 0.0289289)
(-0.0982711 -0.0306384 -0.00593066)
(0.0830713 -0.0110333 -0.0372055)
(-0.0235805 0.00102248 0.111088)
(0.0704456 0.0156482 0.00486515)
(-0.291711 0.144951 0.0733806)
(0.157855 -0.147148 -0.0853268)
(-0.082066 0.105365 0.0710262)
(0.111987 -0.10022 -0.066411)
(-0.0510935 0.0455152 0.00185875)
(0.0660649 -0.0543594 -0.0216266)
(-0.00832423 0.0461243 -0.011004)
(0.0469599 -0.0526721 0.00565554)
(0.012566 0.0486845 -0.00996135)
(-0.239769 0.0469263 0.0627134)
(0.183388 -0.0701586 -0.0602742)
(-0.0896438 0.0681113 0.0718912)
(0.0695281 -0.0694878 -0.0359488)
(-0.0145742 0.0659205 0.0393526)
(0.0883673 -0.0612094 -0.0455537)
(-0.0234706 0.0283424 0.00341697)
(0.0503447 -0.0287028 -0.00855326)
(0.0195218 0.0149011 -0.00172128)
(0.481546 -0.0275799 -0.0979227)
(-0.228545 0.00701264 0.123608)
(0.180256 -0.0371395 -0.16638)
(-0.0887678 0.0116299 0.21764)
(0.119038 -0.06052 -0.133631)
(-0.0114499 0.0384291 0.129286)
(0.0120709 -0.0453974 -0.172667)
(0.026172 0.0346576 0.0238433)
(0.0338818 -0.0574182 -0.0124982)
(0.0241415 0.0466122 0.0133595)
(0.455185 0.0818764 -0.0489608)
(-0.25048 -0.0327188 0.0161035)
(0.165076 0.029667 -0.0228198)
(-0.0612772 -0.013701 0.262619)
(0.104362 -0.0401134 -0.194956)
(-0.0208873 0.0204987 0.121606)
(0.109701 -0.0612681 -0.0697773)
(-0.0457493 0.0679032 -0.0854711)
(0.0608616 -0.064036 0.0159202)
(0.0283371 0.0141092 -0.00661477)
(0.498309 0.0878105 -0.155758)
(-0.287451 -0.0948084 0.233938)
(0.224087 0.037842 -0.164866)
(-0.138484 -0.0343218 0.225793)
(0.134536 -0.000173176 -0.16676)
(-0.0392282 -0.0323595 0.107666)
(0.101904 -0.0112476 -0.069741)
(-0.00797808 -0.0105391 -0.0544909)
(-0.0220334 0.0154954 0.0212459)
(0.0612858 -6.37121e-05 0.000980408)
(0.453307 0.0387001 0.0179893)
(-0.299276 -0.127158 -0.0303253)
(0.232686 0.0606617 0.0234039)
(-0.0914435 -0.0241407 0.264529)
(0.115422 0.0228122 -0.189015)
(-0.0277416 -0.0150356 0.121054)
(0.0699638 -0.0647695 -0.1043)
(-0.0152566 0.148111 0.060475)
(0.0811934 -0.0627588 -0.0548102)
(0.0395169 0.0783227 0.0344435)
(0.432675 0.0621584 -0.0379961)
(-0.273313 -0.110855 0.062483)
(0.29953 0.0801605 -0.148426)
(-0.186727 -0.0676873 0.173667)
(0.179346 0.0585003 -0.108015)
(-0.118182 -0.0688856 0.114148)
(0.204277 0.0722437 -0.0645703)
(-0.311587 -0.0208731 -0.0367508)
(0.236855 0.299311 0.270826)
(0.0244257 0.29471 0.285583)
(0.42478 0.0150306 0.0530924)
(-0.288009 -0.0927579 -0.0441488)
(0.29499 0.029385 0.03466)
(-0.16483 -0.101374 -0.00694388)
(0.111512 0.0678177 0.0523499)
(0.027653 -0.0879651 0.157524)
(-0.191857 0.153236 -0.124464)
(0.140196 0.34156 0.31497)
(0.0761474 -0.00835753 0.274794)
(0.0236739 0.147116 0.369998)
(-0.260545 -0.0881413 -0.0229667)
(0.287501 0.0383405 -0.0202116)
(-0.1493 -0.0791126 -0.0176318)
(0.150883 0.0355211 0.00250647)
(-0.0422936 0.0393351 0.180793)
(-0.170694 -0.136444 -0.113556)
(0.330324 -0.00429543 0.326355)
(0.0129891 0.073383 0.277875)
(0.00333167 0.063401 0.367525)
(0.300115 -0.00510937 0.0331989)
(-0.171412 -0.0564906 0.000297116)
(0.225232 -0.00934951 -0.0129109)
(-0.131517 0.0251129 0.13836)
(0.221169 -0.0646377 -0.0519271)
(-0.258539 -0.0606355 0.0059527)
(0.371431 0.0461397 0.307654)
(-0.539211 0.0785221 -0.0521005)
(0.442465 -0.129621 -0.0143049)
(-0.23128 0.119967 0.424697)
(0.263411 -0.134431 -0.262312)
(-0.147173 0.136429 0.00652681)
(0.0598212 -0.0969986 0.0198593)
(-0.0224319 0.0937146 -0.0246011)
(0.0579791 -0.0994738 0.0214859)
(0.0169753 0.0442949 -0.0415717)
(0.0446589 -0.0476838 0.0353202)
(0.013714 0.0378503 -0.023583)
(-0.449472 0.0595129 0.18456)
(0.387383 -0.0814322 -0.425442)
(-0.287024 0.0937165 0.454813)
(0.231636 -0.161064 -0.319391)
(-0.144607 0.199472 0.235591)
(0.151601 -0.178074 -0.149274)
(-0.0610728 0.177708 -0.0414334)
(0.0131629 -0.22411 0.0147757)
(0.0251783 0.0727508 0.0332217)
(0.0377261 -0.0579218 -0.0286564)
(0.0340711 0.0590678 0.0267989)
(-0.501935 -0.0186459 0.130737)
(0.448326 -0.0223672 -0.512961)
(-0.373308 -0.0453998 0.426926)
(0.294845 -0.00134808 -0.273469)
(-0.354058 0.107469 0.148179)
(0.288209 0.20299 0.23887)
(-0.0879383 0.410169 0.39694)
(-0.261822 -0.0395393 -0.0321627)
(0.0992735 -0.0782929 -0.109853)
(0.0293843 0.00100057 0.0843623)
(-0.010858 0.00998552 -0.0406507)
(-0.45107 -0.00417274 0.176144)
(0.354882 -0.0463856 -0.415369)
(-0.278491 0.127315 0.441886)
(-0.0219637 -0.139989 -0.335082)
(-0.0671598 0.344335 0.434908)
(0.100367 -0.0889025 0.22861)
(-0.0594785 0.10266 0.485078)
(0.00505102 0.424381 0.252374)
(-0.289014 -0.107069 0.0989748)
(0.0865901 0.0173203 -0.17429)
(0.0312688 0.0068555 0.0990665)
(0.619555 0.0745429 -0.0168123)
(-0.557957 -0.0629198 0.398911)
(0.616626 0.291473 0.109121)
(-0.219172 0.0347351 0.521165)
(0.0257445 0.0407007 0.21379)
(-0.0625631 0.0569875 0.480352)
(0.0737712 0.106171 0.327894)
(-0.231824 0.171178 0.0393374)
(0.141353 -0.135651 -0.073982)
(-0.0993028 0.0903314 -0.153622)
(0.454286 0.144938 -0.0784241)
(-0.282155 -0.229836 0.207338)
(0.0153096 0.213437 -0.282583)
(0.102713 -0.0937912 0.477159)
(0.0418469 0.0272205 0.21796)
(-0.0824962 0.0117285 0.490928)
(0.0186386 -0.0514557 0.309617)
(-0.059512 0.51926 0.308942)
(0.0786772 0.237921 0.267132)
(0.0102059 0.346342 0.281321)
(0.521096 0.0357939 0.0135355)
(-0.398322 -0.0629866 0.031206)
(0.370862 0.0212833 0.0149952)
(-0.275716 -0.211313 0.202337)
(0.487284 0.0926837 0.236637)
(-0.12941 0.0201527 0.448157)
(0.0540312 0.0772273 0.314576)
(-0.0066247 0.202652 0.357918)
(0.120078 0.192422 0.125107)
(0.0750814 0.221459 0.255928)
(0.43671 0.0855697 0.0326218)
(-0.281187 -0.169168 0.0237388)
(0.34869 0.166205 -0.041726)
(-0.164015 -0.243148 0.165005)
(-0.0337847 0.237815 -0.186831)
(0.0902195 -0.00679938 0.496371)
(0.0205159 0.052933 0.244681)
(0.0914253 0.106564 0.194592)
(0.140641 0.0757205 0.369822)
(0.0569464 0.125709 0.436949)
(-0.320158 -0.0506544 -0.0160995)
(0.304613 -0.019753 0.0202032)
(-0.149396 -0.0369482 0.0335299)
(-0.076365 -0.0819389 0.0358354)
(0.230219 -0.0789272 0.469995)
(0.00202945 0.0124159 0.228787)
(0.19803 0.0637745 0.342401)
(0.0684717 0.0749588 0.503548)
(0.0454762 0.0603962 0.449561)
(0.364603 0.0319486 0.0355358)
(-0.222272 -0.0309336 -0.0172263)
(0.350387 -0.0365297 0.0205469)
(-0.250778 0.0286972 0.0668556)
(0.232722 0.101658 0.329801)
(-0.0210688 0.0798299 0.313516)
(0.245298 0.0750148 0.345562)
(0.489627 -0.198397 -0.0570522)
(-0.318385 0.195027 0.0743609)
(0.164313 -0.1677 -0.0643462)
(-0.0927109 0.154062 0.0408854)
(0.116364 -0.127879 -0.0185978)
(-0.0597238 0.081291 -0.0238451)
(0.0844188 -0.0741789 0.0230609)
(-0.0243092 0.0683888 -0.0255704)
(0.0583395 -0.063245 0.0228331)
(0.00626577 0.0610324 -0.0238009)
(0.410724 -0.137058 -0.0541217)
(-0.209797 0.549164 0.0670033)
(0.240532 -0.387585 -0.0590138)
(-0.159071 0.0931493 0.0565037)
(0.0917052 -0.0633361 -0.0206279)
(-0.0382222 0.0609517 0.0173887)
(0.0912801 -0.0532933 -0.0157385)
(-0.0252045 0.020833 0.00755678)
(0.0449513 -0.0231679 -0.00285)
(0.021384 0.0282407 -0.000767532)
(-0.443067 0.240397 0.132728)
(0.0497059 -0.578662 -0.487762)
(-0.418411 0.603114 0.4877)
(0.335675 0.0158078 0.108281)
(-0.302575 0.31367 0.217654)
(0.152021 -0.256495 -0.153076)
(-0.0939511 0.0292107 -0.102194)
(0.0452757 -0.042985 0.0885975)
(0.00460676 0.0851129 -0.0345934)
(0.0652327 -0.0868299 0.0322566)
(0.000552096 0.0819529 -0.0198974)
(-0.654494 0.257228 0.253641)
(0.581844 0.247045 0.0590926)
(-0.186701 0.35619 0.711759)
(0.19953 0.0879249 0.0176611)
(-0.184018 0.571225 0.462257)
(0.175427 0.131029 0.2104)
(-0.292759 0.210521 0.117525)
(0.135295 -0.173066 -0.173286)
(-0.0816988 -0.0463176 0.08632)
(0.0411808 0.0247165 -0.0441384)
(0.0351354 -0.00123225 0.0277659)
(-0.726351 -0.00778937 0.22897)
(0.639916 0.131901 0.0833743)
(-0.172382 0.0722099 0.642071)
(0.150284 0.0846204 0.126397)
(-0.0671143 0.239883 0.46474)
(0.15695 0.03452 0.0555891)
(-0.0997072 0.572169 0.190476)
(0.0630277 0.199361 0.431189)
(-0.252907 0.128678 -0.121774)
(0.0742263 -0.196718 0.0403194)
(-0.0229954 0.126164 -0.0111748)
(-0.64695 -0.2447 0.243737)
(0.690578 -0.0238413 0.0332518)
(-0.198958 -0.00566274 0.732566)
(0.0946085 -0.00509805 0.0542322)
(0.0715178 0.082544 0.303812)
(0.162926 0.0583459 0.43125)
(0.0105049 0.221215 0.369443)
(0.0576843 0.0990914 0.0860278)
(-0.134389 0.47707 0.420318)
(-0.234693 -0.0861646 -0.171919)
(0.0969312 -0.0821519 0.0290318)
(-0.465768 -0.217901 0.11636)
(0.0946543 0.482457 -0.410356)
(-0.235795 -0.327071 0.488821)
(0.122989 -0.11608 -0.074678)
(-0.00296099 -0.00279179 0.609826)
(0.00223334 0.0350981 0.455939)
(-0.0178758 0.0622889 0.447889)
(-0.0134423 0.102484 0.274059)
(-0.0396581 0.133702 0.536476)
(0.0071014 0.436049 0.230474)
(-0.179907 0.00103179 -0.0387206)
(0.629007 0.0851682 -0.0668597)
(-0.439134 -0.468174 0.415415)
(0.614011 0.150066 0.121939)
(0.0783846 -0.0715341 0.40916)
(0.0129616 0.0215935 0.482377)
(-0.0357548 0.0333462 0.484826)
(-0.0075421 0.0295431 0.383001)
(0.0213397 0.207559 0.245682)
(0.0613534 0.116115 0.159137)
(-0.00199762 0.532257 0.160968)
(0.504505 0.174366 -0.0624794)
(-0.270143 -0.296261 0.118978)
(0.041082 0.318402 -0.211726)
(0.0597961 -0.176103 0.423134)
(0.167371 0.00662478 0.224408)
(-0.0473607 0.0355156 0.521825)
(-0.00772527 0.0507692 0.40897)
(0.0695806 0.185974 0.406781)
(0.00246203 0.281328 0.252269)
(0.0920479 0.37684 0.148175)
(0.49625 0.0508386 0.00250315)
(-0.361625 -0.145388 0.01779)
(0.422898 0.0333692 -0.0170384)
(-0.282902 -0.3073 0.210797)
(0.486894 0.114643 0.215005)
(-0.0456555 -0.00704717 0.340032)
(-0.0690524 0.0984561 0.44046)
(-0.150525 0.287195 0.414047)
(-0.13227 0.241654 0.434455)
(-0.0462097 0.30136 0.343642)
(-0.284533 -0.156525 0.0162786)
(0.344018 0.113894 -0.0458847)
(-0.132587 -0.266262 0.135288)
(0.0806844 0.258018 -0.235579)
(0.160491 -0.0206341 0.310403)
(-0.0372976 -0.0800954 0.419934)
(-0.234402 0.00792489 0.430855)
(0.0446843 0.0896217 0.478897)
(0.0421911 0.0587934 0.30472)
(0.329195 0.0191888 0.0113943)
(-0.183986 -0.133515 -0.00340475)
(0.105644 0.00555279 0.0100043)
(-0.00185077 0.0356959 0.447768)
(0.0637476 -0.0297983 0.199877)
(0.0215293 -0.0243322 0.43948)
(-0.1041 -0.0251134 0.360047)
(-0.514517 0.130202 0.00648648)
(0.479794 -0.169886 -0.0488802)
(-0.278163 0.201672 -0.00868562)
(0.210605 -0.167785 -0.00713148)
(-0.108692 0.17657 0.0304607)
(0.0653848 -0.117943 -0.0154839)
(-0.0254332 0.116793 -0.0256639)
(0.0855416 -0.099148 0.0244772)
(-0.0205721 0.0814809 -0.021563)
(0.051278 -0.0678009 0.0196611)
(0.0169526 0.0635752 -0.0163985)
(-0.435261 0.279462 -0.0344748)
(0.383202 -0.589797 0.0660079)
(-0.304725 0.591581 -0.0225386)
(0.189638 -0.46523 0.0160487)
(-0.14164 0.375284 -0.00186418)
(0.153655 -0.235624 0.00694905)
(-0.103588 0.00750989 0.0297349)
(0.0713818 -0.0245373 -0.0190005)
(-0.00489932 0.0474028 0.00825879)
(0.0357181 -0.046833 0.00324312)
(0.0218636 0.0580322 -0.0104298)
(-0.670317 0.327936 0.225395)
(0.654491 -0.0417832 0.30204)
(-0.249213 0.792846 0.273319)
(0.256528 -0.0822877 0.0862441)
(-0.202079 0.542938 0.477066)
(0.237369 0.0604753 0.179265)
(-0.333523 0.243088 -0.0885338)
(0.0809423 -0.222845 0.0624262)
(-0.0479804 0.132327 -0.0153414)
(0.0621245 -0.0922451 0.0157624)
(0.0028528 0.0675367 0.000146025)
(-0.8447 0.082021 -0.0660643)
(0.683213 -0.0537975 -0.0497031)
(0.0311907 0.46211 0.394239)
(0.136059 0.25894 0.240574)
(-0.0573161 0.384911 0.306097)
(0.0924513 -0.00520438 -0.00853156)
(-0.184228 0.523403 0.448155)
(-0.256718 -0.14593 -0.193907)
(0.109527 0.00290311 0.0748139)
(-0.0272984 -0.0437063 -0.0209292)
(0.0612633 0.0679319 -0.00880618)
(-0.838545 -0.025601 0.0431147)
(0.645268 0.14108 0.0708117)
(0.174869 0.133455 0.564706)
(0.116586 0.0513357 0.308043)
(-0.0372036 0.423388 0.513567)
(-0.150318 0.277115 0.117749)
(-0.0023329 0.232293 0.134621)
(0.106965 0.392609 0.00738548)
(-0.209423 0.0603841 -0.00277339)
(0.107135 -0.110623 -0.0274256)
(-0.0693827 0.0112141 0.0491977)
(-0.799705 -0.0666163 -0.082336)
(0.709493 0.0722974 0.0448387)
(0.0370823 -0.191596 0.520936)
(0.049724 0.00750287 0.329342)
(-0.100795 0.167632 0.461714)
(-0.0077346 0.244776 0.229486)
(0.0379187 0.483115 0.116762)
(-0.0301277 0.304863 0.0120607)
(-0.0317084 0.518728 0.117533)
(-0.251143 -0.0995578 0.0169313)
(0.211078 0.0306804 -0.0884455)
(-0.673782 -0.360794 0.218247)
(0.774449 0.0574532 0.142508)
(-0.061954 -0.182273 0.27506)
(-0.0549558 -0.261072 0.373844)
(-0.182417 0.117556 0.388816)
(-0.00401267 0.14444 0.443003)
(-0.0144436 0.187047 0.366245)
(-0.120466 0.281664 0.184823)
(0.174114 0.0684211 0.19033)
(0.0612434 0.441193 0.0643678)
(-0.391367 0.021503 0.121023)
(0.0841766 0.444671 0.104508)
(-0.219893 -0.459716 0.478295)
(0.0331432 -0.00188476 -0.0905864)
(-0.126551 -0.351374 0.521229)
(0.0022344 -0.101632 0.520347)
(0.0319824 0.0463013 0.353508)
(0.00953751 0.14311 0.218867)
(-0.00689615 0.461185 0.216905)
(0.109509 0.262692 0.0171942)
(-0.0611285 0.469362 0.102622)
(0.601347 0.0998999 -0.109656)
(-0.488171 -0.55493 0.162801)
(0.614656 0.201591 0.148938)
(-0.0582599 -0.224774 0.252402)
(-0.0638232 -0.307938 0.384393)
(0.041396 -0.177713 0.480648)
(0.0424173 0.0691381 0.307218)
(0.0649592 0.339884 0.21405)
(-0.038978 0.182788 0.0973644)
(0.130582 0.372887 0.182698)
(0.481662 0.154796 0.079056)
(-0.300007 -0.269026 -0.0740029)
(0.00458795 0.268807 0.105444)
(0.0264434 -0.260386 0.445278)
(0.0374355 -0.100452 -0.037535)
(-0.114937 -0.238953 0.435501)
(0.0353076 -0.0219414 0.41757)
(0.0733856 0.162125 0.107759)
(0.09029 0.27799 0.115647)
(0.147092 0.103084 0.0258071)
(-0.336308 -0.332303 0.115127)
(0.520755 0.0827866 0.226725)
(-0.162526 -0.125182 0.0754298)
(0.173116 -0.0924732 0.262581)
(0.108805 -0.0088612 0.159821)
(0.933681 -0.0537295 -0.422825)
(0.153334 0.131329 -0.0427269)
(0.0298442 -0.014879 0.201104)
(-0.117611 -0.049087 0.122148)
(-0.020035 -0.0261092 0.131802)
(0.513484 0.04597 -0.239924)
(-0.512358 0.127682 -0.0798475)
(0.477492 -0.16991 0.118357)
(-0.277567 0.21604 -0.0450033)
(0.199577 -0.180987 0.0456255)
(-0.0997599 0.189782 -0.0292247)
(0.0607478 -0.133448 0.0118207)
(-0.0200286 0.128369 0.00432758)
(0.0877819 -0.111035 0.00102964)
(-0.0297343 0.0933846 -0.0104279)
(0.0635933 -0.0775675 0.0117564)
(0.00180492 0.069186 -0.0202528)
(0.558723 -0.100141 0.0167788)
(-0.438476 0.279239 -0.0376054)
(0.405014 -0.596617 0.00266073)
(-0.321064 0.606056 -0.0299277)
(0.197157 -0.486814 0.0224974)
(-0.150675 0.406862 -0.0412239)
(0.150338 -0.269283 0.0328407)
(-0.10165 0.00818712 -0.0574553)
(0.0699144 -0.00508622 0.0451867)
(-0.00012262 0.0277812 -0.0417592)
(0.0256029 -0.02778 0.0269279)
(0.0339614 0.0455611 -0.0219983)
(0.718736 -0.129377 0.0748763)
(-0.661893 0.309595 -0.300871)
(0.783366 -0.0646507 0.102302)
(-0.321821 0.773407 0.00163008)
(0.234469 -0.0967933 0.033584)
(-0.077912 0.603488 0.085937)
(0.285126 0.0844153 -0.110944)
(-0.309336 0.251162 0.127261)
(0.0595272 -0.239989 -0.0739204)
(-0.0581901 0.152991 0.0183236)
(0.0811933 -0.113457 -0.00643815)
(-0.0246786 0.0832973 -0.022519)
(0.681562 -0.0836231 0.0585914)
(-0.834307 0.0698056 -0.0089908)
(0.736275 0.0582386 0.191735)
(0.032163 0.699638 -0.010314)
(0.131078 0.332968 -0.00380546)
(-0.0726857 0.632806 0.257775)
(0.0911501 0.0359899 0.000524473)
(-0.0694617 0.602538 -0.0299435)
(-0.243305 -0.161793 0.20307)
(0.10836 -0.0194301 -0.109136)
(-0.0414708 -0.0184516 0.0514864)
(0.0847978 0.049144 -0.0220901)
(0.717266 -0.0138096 0.0704611)
(-0.848915 -0.0250167 -0.114479)
(0.693695 0.0647557 0.0944954)
(0.191973 0.113757 0.0161119)
(0.289849 0.145545 0.0332883)
(0.117602 0.35945 0.120291)
(0.0114539 0.480585 -0.0569261)
(0.0746921 0.265738 0.0175609)
(0.188166 0.38325 -0.0522041)
(-0.233557 0.074372 0.117559)
(0.12156 -0.146208 -0.0356696)
(-0.114355 0.0448143 -0.0304617)
(-0.79221 -0.0572991 0.00721579)
(0.725303 0.114683 0.164641)
(0.244631 -0.331914 -0.0201085)
(0.0747056 -0.237587 -0.0437897)
(0.902951 -0.0171721 0.219369)
(0.566088 0.197973 -0.15382)
(0.020092 0.461714 0.0110901)
(0.00967847 0.350247 0.0751607)
(-0.0337636 0.556023 -0.0906097)
(-0.276245 -0.125363 0.144159)
(0.25123 0.0225184 0.0152343)
(-0.668161 -0.348978 -0.287008)
(0.874293 -0.089848 0.0713277)
(-0.15638 -0.301711 0.120744)
(0.0514712 -0.334857 -0.0536178)
(0.219319 -0.107208 0.00900485)
(1.38069 0.0699064 -0.0133951)
(0.908937 0.366542 -0.115579)
(0.0498508 0.259295 -0.0413451)
(0.161578 0.141892 0.0382145)
(0.0846744 0.440368 -0.04592)
(-0.442584 0.0147072 0.00503339)
(0.095331 0.461181 -0.0481566)
(0.038162 -0.496307 -0.00848939)
(0.0705729 -0.116065 0.0415999)
(-0.0297901 -0.363127 -0.062872)
(0.238196 -0.0855883 -0.0221267)
(1.04376 0.239997 0.0535178)
(0.14345 0.335048 -0.0152882)
(-0.0522973 0.334565 0.125681)
(-0.125733 0.479212 0.0476816)
(0.60569 0.108713 0.166082)
(-0.487738 -0.576054 -0.212994)
(0.746021 0.031788 0.0279996)
(-0.160844 -0.264867 -0.0318356)
(0.0580664 -0.358456 -0.162788)
(0.0933311 -0.17105 -0.033023)
(1.29408 0.0925875 0.00733744)
(1.06528 0.391435 -0.198578)
(0.119334 0.145608 0.0310476)
(0.479464 0.163029 -0.0153519)
(-0.301941 -0.286601 0.0188713)
(-0.00601114 0.297638 -0.0659507)
(0.214734 -0.332424 -0.0206441)
(0.0227772 -0.147644 0.0162917)
(0.0953044 -0.223473 -0.0242814)
(0.218206 -0.133439 0.0024387)
(1.00665 0.284613 -0.303263)
(-0.34967 -0.370129 -0.130546)
(0.652942 -0.0401602 0.0367182)
(-0.162979 -0.114381 0.0626372)
(0.125364 -0.0808054 -0.0215069)
(0.120991 -0.0708309 0.0176039)
(0.221585 0.153854 0.0115669)
(-0.106566 0.0508123 0.0602447)
(-0.284961 0.0540056 0.057038)
(-0.449666 0.12748 -0.0939765)
(0.508756 -0.203138 0.133871)
(-0.353483 0.201326 -0.140088)
(0.230466 -0.182804 0.120718)
(-0.145154 0.167397 -0.0930245)
(0.0944821 -0.133 0.0654163)
(-0.0346407 0.0911392 -0.0232795)
(0.0702953 -0.0764586 0.0180967)
(-0.00917689 0.0659816 -0.0140868)
(0.0410661 -0.0603847 0.0108618)
(0.026936 0.0626237 -0.0136656)
(-0.531697 0.0503033 -0.052593)
(0.538348 -0.0660832 0.0531348)
(-0.517322 0.0569113 -0.096398)
(0.407679 -0.149024 0.116081)
(-0.229316 0.578653 -0.0621346)
(0.211306 -0.459817 0.0505531)
(-0.118725 0.383486 -0.0526414)
(0.0595106 -0.308817 0.00894245)
(-0.0608386 0.156115 -0.0358787)
(0.0852519 -0.114411 0.032436)
(-0.0267967 0.0774931 -0.034592)
(0.0556757 -0.0651548 0.0289905)
(0.00642305 0.0557354 -0.0307068)
(-0.532996 0.0859244 -0.075104)
(0.547299 -0.100833 0.0812454)
(-0.450276 0.267236 -0.210167)
(0.066215 -0.58412 0.579167)
(-0.297849 0.761515 -0.320867)
(0.35653 -0.106329 -0.0398467)
(-0.216816 0.638311 -0.140693)
(-0.230634 -0.209101 0.124161)
(0.100022 0.0424735 0.0422329)
(-0.00402534 -0.0729342 -0.0225775)
(0.0405215 0.06155 -0.000220355)
(0.0195664 -0.0635414 -0.00402119)
(0.0448261 0.0679531 -0.00910048)
(-0.599106 0.0448965 -0.093996)
(0.779059 -0.0911207 0.130084)
(-0.640085 0.269497 -0.382315)
(0.807205 0.0267895 0.187805)
(-0.0390663 0.536949 -0.276048)
(0.187473 0.308608 -0.161571)
(-0.161519 0.289726 -0.0389083)
(0.10361 0.32229 -0.0750117)
(-0.232392 0.132434 -0.0687189)
(0.0604969 -0.173821 0.132774)
(-0.0200556 0.087315 -0.0796517)
(0.0620281 -0.0789067 0.0566689)
(-0.00443857 0.059121 -0.0507178)
(-0.611396 -0.00771063 -0.0874885)
(0.715081 -0.025766 0.118691)
(-0.721031 -0.00873734 -0.374267)
(0.812653 0.0559163 0.13751)
(-0.108898 0.0232775 -0.441924)
(-0.0657919 0.171388 -0.359647)
(-0.122925 0.510435 -0.34925)
(0.0842215 0.174717 -0.010533)
(-0.0613229 0.569652 -0.180901)
(-0.208161 -0.117497 0.137515)
(0.0960659 -0.0144923 0.0562825)
(-0.00952539 -0.0451071 -0.0280519)
(0.0805069 0.0505378 -0.00284225)
(-0.605465 -0.0516125 -0.0924654)
(0.778811 0.0339032 0.124778)
(-0.646237 -0.249059 -0.363002)
(0.848067 0.046929 0.00653135)
(-0.160826 -0.0311604 -0.28157)
(0.0769752 -0.13531 -0.297113)
(-0.0602415 0.047659 -0.386601)
(-0.0707482 0.463684 -0.25747)
(0.0922462 0.405084 -0.212445)
(0.114627 0.426648 -0.0381138)
(-0.195091 0.0473065 0.00533794)
(0.0798302 -0.123685 0.135971)
(-0.0388835 0.0451752 -0.0475896)
(-0.552985 -0.0923671 -0.0694594)
(0.563333 0.0353236 0.0656819)
(-0.477302 -0.235181 -0.187209)
(0.126613 0.490262 0.502939)
(-0.0176541 -0.311198 -0.264931)
(0.0557059 -0.119812 -0.116245)
(-0.0860148 -0.0618729 -0.445347)
(-0.0446351 0.0783403 -0.321497)
(-0.138014 0.201141 -0.289926)
(0.00325351 0.329294 -0.148844)
(-0.0252801 0.503471 -0.123459)
(-0.216787 -0.0950367 0.104173)
(0.212743 0.0426199 0.0351617)
(-0.56337 -0.0606347 -0.0433841)
(0.592848 0.0152924 0.0610192)
(-0.597552 -0.0614147 -0.0380087)
(0.640707 0.088547 0.135417)
(-0.453479 -0.49894 -0.429599)
(0.679392 0.0423896 0.0846765)
(-0.124695 -0.370443 -0.475469)
(-0.00385614 -0.112512 -0.416299)
(-0.108157 0.0127543 -0.449603)
(-0.0802371 0.168807 -0.284659)
(-0.0176495 0.384075 -0.164984)
(-0.0423214 0.42221 0.0476982)
(0.0350734 0.382227 -0.0291103)
(-0.523917 -0.0771962 -0.0387914)
(0.545472 0.0384392 0.0466164)
(-0.459515 -0.137803 -0.082133)
(0.516486 0.165601 0.129108)
(-0.297765 -0.296674 -0.18286)
(0.0362112 0.338138 0.245192)
(0.141179 -0.207053 -0.221411)
(0.0631806 -0.250871 -0.143092)
(0.00898673 -0.118307 -0.381279)
(-0.0455192 0.0515874 -0.384456)
(-0.053119 0.25383 -0.202198)
(0.0723265 0.511016 -0.107247)
(0.505869 0.0436021 0.061684)
(-0.39058 -0.131871 -0.0695456)
(0.441322 0.0202614 0.0652641)
(-0.305579 -0.290311 -0.267489)
(0.573904 -0.0715307 0.0357393)
(-0.215842 -0.141814 -0.357095)
(0.0238862 -0.00736593 -0.332358)
(-0.05798 0.159892 -0.193605)
(0.034348 0.220213 -0.100639)
(0.129326 0.191164 0.23472)
(-0.0188577 0.0113669 -0.00418928)
(-0.100171 -0.0687619 -0.112503)
(0.14287 0.0259891 -0.0988183)
(-0.437937 0.0712974 -0.0641158)
(0.430579 -0.106552 0.0783328)
(-0.293116 0.186842 -0.1531)
(0.256377 -0.185429 0.125792)
(-0.154613 0.162471 -0.118047)
(0.131945 -0.146613 0.0895455)
(-0.0712305 0.119192 -0.0555509)
(0.0977812 -0.0994929 0.0381093)
(-0.0370779 0.0803177 -0.0269422)
(0.0640429 -0.0672969 0.0196847)
(0.00287669 0.0584868 -0.0190794)
(-0.493343 0.038838 -0.044467)
(0.499911 -0.0697824 0.0475044)
(-0.446839 0.0803713 -0.0872365)
(0.512223 -0.167721 0.138425)
(-0.371597 0.209723 -0.145236)
(0.250772 -0.185439 0.117688)
(-0.152853 0.178172 -0.115917)
(0.126262 -0.132324 0.0798991)
(-0.0592041 0.0685378 -0.0563452)
(0.0706739 -0.0528338 0.0402611)
(-0.00457797 0.0406069 -0.0373687)
(0.0295865 -0.0437391 0.02945)
(0.0345726 0.0503058 -0.032675)
(-0.538405 0.0157941 -0.052271)
(0.535698 -0.0499392 0.0473732)
(-0.534285 -0.0171121 -0.063624)
(0.475861 -0.103746 0.122128)
(-0.240513 0.490995 -0.504664)
(0.189212 -0.46191 0.421769)
(-0.0766611 0.324887 -0.323062)
(-0.0328849 -0.297006 0.261658)
(-0.00721054 0.186148 -0.121203)
(0.0680655 -0.15245 0.074147)
(-0.0302996 0.102897 -0.0448001)
(0.0731623 -0.0844496 0.0306122)
(-0.0140466 0.062398 -0.0274687)
(-0.510927 0.00845617 -0.0907782)
(0.487211 -0.0321922 0.0828561)
(-0.433052 -0.0142692 -0.289606)
(0.0721596 -0.0263219 0.543022)
(-0.245085 0.646538 -0.535313)
(0.402986 -0.0675697 0.0296783)
(-0.213135 0.567366 -0.242119)
(-0.184766 -0.154502 0.174568)
(0.0623688 0.0268824 -0.0291387)
(-0.0142176 -0.0467089 0.0506513)
(0.0660482 0.0257143 -0.0498821)
(-0.0096471 -0.0460219 0.0419209)
(0.0699033 0.0554289 -0.0495469)
(-0.537933 -0.00983582 -0.0797922)
(0.523085 -0.0204368 0.0926741)
(-0.439242 -0.00509119 -0.220833)
(0.074688 -0.0320257 0.644765)
(-0.0702381 0.168209 -0.553769)
(0.281382 0.0449537 -0.0713475)
(-0.081552 0.124911 -0.327549)
(0.144353 0.335404 0.0353308)
(-0.233812 0.0833511 -0.189649)
(0.0285486 -0.126567 0.176062)
(-0.0340763 0.0776531 -0.0768422)
(0.103259 -0.0718926 0.0507161)
(-0.0553256 0.0469869 -0.0380137)
(-0.513869 -0.00477581 -0.0885127)
(0.492469 -0.0433258 0.0818741)
(-0.439217 0.0679315 -0.282531)
(0.105288 -0.0941078 0.535688)
(-0.0367005 -0.111021 -0.506382)
(0.223757 0.0356928 -0.0569327)
(-0.0928343 0.0388815 -0.334835)
(0.151108 0.0708369 -0.11389)
(-0.128318 0.559527 -0.195355)
(-0.193874 -0.120708 0.095986)
(0.0896308 0.00171375 -0.00275218)
(-0.0398948 -0.0443785 0.0447897)
(0.116519 0.0427674 -0.0603601)
(-0.570646 -0.0365011 -0.0544815)
(0.590249 0.00719956 0.0551994)
(-0.612935 -0.00220466 -0.0753902)
(0.6508 0.0652961 0.130596)
(-0.511821 -0.410583 -0.497977)
(0.70218 0.100226 -0.00869776)
(-0.129343 -0.0286312 -0.375052)
(0.103657 0.0165713 -0.131512)
(-0.0319331 0.0851393 -0.290107)
(0.0846075 0.428559 -0.0265397)
(-0.247953 0.0249259 -0.0861744)
(0.117283 -0.0392186 0.137553)
(-0.081129 0.0794481 -0.0108216)
(-0.499606 -0.0531907 -0.044769)
(0.508198 0.0203471 0.056198)
(-0.437434 -0.0944487 -0.110116)
(0.538614 0.119222 0.172157)
(-0.311066 -0.249144 -0.289272)
(-0.0440106 0.29454 0.388461)
(0.144241 -0.158045 -0.329495)
(0.15772 -0.0112208 -0.135531)
(-0.0524033 0.0219151 -0.288295)
(0.10164 0.0528363 -0.17163)
(-0.0385852 0.49387 -0.142101)
(0.0612422 0.275856 -0.0924444)
(-0.0261662 0.400805 -0.184782)
(-0.533829 -0.0486661 -0.0377062)
(0.550613 0.00289152 0.0419225)
(-0.506132 -0.0609044 -0.0709889)
(0.52833 0.0405297 0.0814065)
(-0.436164 -0.145311 -0.117497)
(0.388425 0.0606722 0.0673578)
(-0.290879 -0.270844 -0.281095)
(0.634583 0.0387883 -0.0750941)
(-0.0629076 0.00331446 -0.264567)
(0.0660148 0.0581484 -0.177655)
(0.0719108 0.266353 -0.224218)
(0.106936 0.339247 -0.0942195)
(0.449181 0.0885838 0.0624817)
(-0.299219 -0.181157 -0.109256)
(0.363782 0.189613 0.116624)
(-0.186151 -0.262395 -0.216005)
(0.02954 0.267408 0.258706)
(0.166013 0.0292943 -0.20636)
(0.112421 0.0326177 -0.100183)
(-0.00269588 0.175006 -0.24765)
(-0.154385 0.421304 -0.322125)
(0.0389243 0.0135294 -0.013548)
(0.291797 0.0322534 -0.147192)
(0.0443576 -0.00825673 -0.0798737)
(-0.106751 0.382492 -0.315469)
(0.0270472 0.14907 -0.343193)
(-0.412809 0.077414 -0.0497438)
(0.421069 -0.108129 0.0686462)
(-0.317834 0.103118 -0.0806268)
(0.27227 -0.110371 0.0749834)
(-0.180773 0.0930899 -0.0650858)
(0.166752 -0.0852731 0.0469104)
(-0.0859637 0.0644503 -0.0252406)
(0.100833 -0.0589845 0.0162386)
(-0.0280274 0.0502887 -0.0106951)
(0.0493416 -0.0485258 0.00844425)
(0.0218931 0.049013 -0.0111477)
(-0.4959 0.0308937 -0.0232864)
(0.493358 -0.0531028 0.0259055)
(-0.438884 0.0620009 -0.0426234)
(0.412687 -0.103049 0.0678645)
(-0.285412 0.144782 -0.129673)
(0.268789 -0.152784 0.125524)
(-0.166186 0.122482 -0.105747)
(0.160377 -0.118546 0.0896461)
(-0.0871635 0.0852159 -0.0720448)
(0.106406 -0.0766079 0.0547301)
(-0.0372951 0.0590305 -0.0437082)
(0.0607221 -0.0539048 0.0328528)
(0.00802637 0.0469588 -0.0282313)
(-0.502792 0.0376656 -0.0394966)
(0.5097 -0.0659453 0.0536273)
(-0.456182 0.0883855 -0.0777492)
(0.49913 -0.159427 0.157459)
(-0.355289 0.137459 -0.191925)
(0.245459 -0.147243 0.15758)
(-0.147796 0.111574 -0.151683)
(0.118199 -0.105246 0.0985891)
(-0.0462198 0.0621162 -0.0399431)