/*--------------------------------*- C++ -*----------------------------------*\
  =========                 |
  \\      /  F ield         | OpenFOAM: The Open Source CFD Toolbox
   \\    /   O peration     | Website:  https://openfoam.org
    \\  /    A nd           | Version:  10
     \\/     M anipulation  |
\*---------------------------------------------------------------------------*/
FoamFile
{
    format      ascii;
    class       volVectorField;
    location    "0.1";
    object      U_0;
}
// * * * * * * * * * * * * * * * * * * * * * * * * * * * * * * * * * * * * * //

dimensions      [0 1 -1 0 0 0 0];

internalField   nonuniform List<vector> 
114955
(
(-0.106393 -0.00117523 0.00561519)
(0.119188 -0.0186198 -0.0159154)
(-0.044634 0.0120051 0.00441549)
(0.0758624 -0.0232844 -0.0099637)
(-0.0164128 0.0257416 -0.0272446)
(0.0478663 -0.0248279 0.00614708)
(0.0162665 0.0162581 -0.0187521)
(-0.123631 -0.0207939 0.021495)
(0.131462 -0.00516402 -0.0300936)
(-0.053501 -0.00968823 0.0130661)
(0.0769246 -0.00637629 -0.0205096)
(-0.00437152 0.00365468 -0.0167265)
(0.0250051 -0.00739026 -0.00331102)
(0.0282963 0.00864045 -0.00362106)
(-0.11452 -0.027416 0.00402903)
(0.130283 -0.00043541 -0.0131193)
(-0.0454016 -0.00713598 0.0132437)
(0.0889268 -0.0150068 -0.0212874)
(-0.0172689 0.033832 0.000580277)
(0.0527412 -0.0161118 -0.0177927)
(0.0125221 0.0291839 -0.00488858)
(-0.130657 -0.0381128 0.000490824)
(0.151526 0.0061575 -0.0129299)
(-0.0672223 -0.0211782 0.0125106)
(0.116595 0.00937055 -0.0177643)
(-0.00481453 0.016657 -0.0149279)
(0.0206103 -0.0108032 -0.0104876)
(0.0265461 0.0117518 -0.00334489)
(0.429958 -0.0188793 -0.00653472)
(-0.283945 0.00251549 0.0343413)
(0.273656 -0.0217229 -0.032406)
(0.4098 -0.0283086 -0.0165516)
(-0.267701 0.0192884 0.0431845)
(0.318979 -0.0257459 -0.0555484)
(-0.198954 0.0107217 0.0260758)
(0.126556 -0.0265019 -0.0343634)
(-0.0570559 0.00762826 0.0171978)
(0.0354286 -0.00429546 -0.0143858)
(0.00299079 -0.0051151 0.0107611)
(0.0507734 -0.0120265 -0.0316517)
(0.0275645 0.00986287 0.024877)
(0.452789 0.00772697 0.0743613)
(-0.27318 -0.0325489 0.0180655)
(0.267497 0.0039375 0.00805989)
(-0.147725 -0.0120474 0.0135727)
(0.113313 -0.0103576 -0.0217947)
(-0.0463275 0.00932393 0.0183432)
(0.0357865 -0.0289114 -0.017689)
(0.0087319 0.037006 0.0104661)
(0.0587708 -0.0424456 -0.0108592)
(0.00335283 0.0244567 -0.0347265)
(0.411473 0.0193186 0.0588871)
(-0.271305 -0.0717221 -0.0161545)
(0.33919 0.00978767 -0.0239318)
(-0.210934 -0.0437224 0.0119902)
(0.148135 0.0106585 -0.0278614)
(-0.0749336 -0.00980182 -0.00281623)
(0.062622 -0.00687462 -0.0108943)
(-0.0094697 -0.00045146 -0.0027615)
(0.0395168 -0.0187096 -0.00830311)
(0.0315888 0.000601683 0.0139689)
(-0.145744 -0.0811482 -0.000199334)
(0.148025 0.0397958 0.00113977)
(-0.0619327 -0.0140859 0.0126306)
(0.0474745 -0.00412463 -0.0677103)
(-0.00844568 -0.00305203 0.155738)
(0.0731469 -0.0397783 -0.0221614)
(0.0361888 -0.0140273 0.0516292)
(-0.177823 -0.0799069 -0.0189)
(0.212883 0.0229312 -0.00639691)
(-0.116901 -0.0117772 -0.0482565)
(0.0697084 -0.0108152 0.0773365)
(0.0026657 -0.0107472 0.0940083)
(0.0514811 -0.0258195 -0.0456543)
(0.0499273 -0.00585635 0.0278591)
(0.213376 -0.0203926 0.051279)
(-0.0938811 -0.0224327 -0.0580872)
(0.0658263 -0.00290184 0.0715479)
(0.00992061 0.00530541 0.0882262)
(0.0545126 -0.0015425 -0.0480509)
(0.049754 -0.0125811 0.0291099)
(0.226768 -0.0167325 0.0289251)
(-0.0980132 -0.0304467 -0.00593033)
(0.0828465 -0.0110667 -0.0374695)
(-0.0234434 0.00105139 0.11161)
(0.0705273 0.0155871 0.00484048)
(-0.29228 0.144835 0.0735454)
(0.157956 -0.146784 -0.0853996)
(-0.0824043 0.105015 0.0711081)
(0.112288 -0.099797 -0.066266)
(-0.051344 0.0451023 0.00178882)
(0.0662126 -0.0539642 -0.0216439)
(-0.00850991 0.0457563 -0.0108816)
(0.0470565 -0.0523627 0.00555127)
(0.012507 0.0483616 -0.00978601)
(-0.240116 0.0467956 0.0627262)
(0.183411 -0.0700655 -0.0602762)
(-0.0898418 0.0679041 0.071732)
(0.0696085 -0.0694578 -0.0359739)
(-0.0148998 0.0657583 0.039384)
(0.0886148 -0.0609006 -0.0455656)
(-0.0237358 0.027946 0.00341287)
(0.050489 -0.0283157 -0.00859425)
(0.0194869 0.0144762 -0.00167689)
(0.481277 -0.0275692 -0.0982789)
(-0.229023 0.00709137 0.124009)
(0.180323 -0.0371334 -0.166757)
(-0.0891503 0.0116214 0.218245)
(0.119386 -0.060505 -0.133394)
(-0.0114047 0.0383222 0.128871)
(0.012094 -0.0451345 -0.172956)
(0.0260732 0.0344129 0.0241904)
(0.0339457 -0.0571886 -0.0125323)
(0.0241166 0.0463773 0.0135009)
(0.455104 0.0819102 -0.0492325)
(-0.250833 -0.0328567 0.0158662)
(0.16526 0.0294501 -0.0223405)
(-0.0615516 -0.0136693 0.261972)
(0.104492 -0.0400228 -0.194474)
(-0.0209457 0.02039 0.121191)
(0.10966 -0.0611365 -0.0693261)
(-0.0460066 0.0679138 -0.086173)
(0.0610283 -0.0637966 0.0163719)
(0.0283558 0.0137604 -0.0069204)
(0.498292 0.087782 -0.156534)
(-0.28818 -0.0947156 0.235284)
(0.224506 0.0377305 -0.165156)
(-0.138543 -0.0343529 0.225117)
(0.134709 -0.000132151 -0.16624)
(-0.0391789 -0.0324512 0.107214)
(0.101862 -0.0110444 -0.0692188)
(-0.00790805 -0.010829 -0.0550225)
(-0.0223391 0.0157931 0.0216176)
(0.0614464 -0.000409011 0.000991515)
(0.453671 0.0387484 0.0180397)
(-0.299641 -0.12712 -0.0306627)
(0.232647 0.0607559 0.0237161)
(-0.0916293 -0.0243547 0.263971)
(0.115439 0.0227549 -0.188637)
(-0.0276268 -0.0151061 0.120703)
(0.0699488 -0.0650089 -0.103867)
(-0.0154111 0.148584 0.0601217)
(0.0813197 -0.0626845 -0.0544269)
(0.0395623 0.0780836 0.0340939)
(0.432927 0.0622793 -0.0383306)
(-0.273764 -0.111147 0.0631585)
(0.299546 0.0801531 -0.14884)
(-0.187048 -0.0676414 0.174342)
(0.179605 0.0586006 -0.107959)
(-0.118346 -0.0692944 0.113646)
(0.205056 0.0729548 -0.064147)
(-0.313743 -0.0215942 -0.0372486)
(0.238929 0.301291 0.27294)
(0.0249908 0.296349 0.287207)
(0.425246 0.0150522 0.0531206)
(-0.288411 -0.0927191 -0.0443002)
(0.295093 0.0293883 0.0348113)
(-0.164838 -0.101353 -0.00740346)
(0.111064 0.0680635 0.0525823)
(0.028286 -0.0885816 0.156977)
(-0.193676 0.154299 -0.124305)
(0.142581 0.342664 0.316884)
(0.0763156 -0.00745509 0.277587)
(0.0239176 0.147611 0.372303)
(-0.26097 -0.0882764 -0.0226876)
(0.287525 0.0383181 -0.0202736)
(-0.149308 -0.0792311 -0.0174878)
(0.150638 0.0353214 0.0031427)
(-0.0415604 0.0397116 0.180369)
(-0.172443 -0.137484 -0.113423)
(0.333104 -0.00377786 0.328471)
(0.0126805 0.073669 0.280813)
(0.00350053 0.0637378 0.369981)
(0.300274 -0.0051424 0.0331655)
(-0.171549 -0.0564059 0.000318408)
(0.225149 -0.00945291 -0.0131811)
(-0.131907 0.0252576 0.13866)
(0.221942 -0.065288 -0.0515936)
(-0.260378 -0.0601138 0.00538529)
(0.374257 0.046388 0.310114)
(-0.540185 0.0788356 -0.0513807)
(0.442691 -0.12968 -0.0143636)
(-0.231594 0.119651 0.424578)
(0.263613 -0.134157 -0.262232)
(-0.14685 0.135868 0.00606081)
(0.0596023 -0.0965749 0.0202056)
(-0.0227255 0.0932367 -0.0247619)
(0.0583507 -0.0989361 0.0215271)
(0.0167902 0.0437028 -0.0416522)
(0.0447866 -0.047205 0.0352642)
(0.0136047 0.0373161 -0.0235207)
(-0.450904 0.0595955 0.186616)
(0.387853 -0.0817382 -0.425918)
(-0.286825 0.0940151 0.454441)
(0.231924 -0.161424 -0.319224)
(-0.14452 0.199966 0.235208)
(0.151829 -0.177529 -0.148697)
(-0.0610332 0.177038 -0.0419469)
(0.0132991 -0.224192 0.0149067)
(0.0251748 0.0727219 0.0332291)
(0.0378278 -0.0575924 -0.0288934)
(0.0341063 0.0587928 0.0269704)
(-0.503447 -0.0188688 0.132654)
(0.449164 -0.022102 -0.513291)
(-0.373343 -0.0458698 0.426417)
(0.295658 -0.000564125 -0.273056)
(-0.355905 0.106392 0.147394)
(0.290082 0.204981 0.240763)
(-0.0875249 0.411678 0.399101)
(-0.263914 -0.0383919 -0.0315389)
(0.0998136 -0.0795137 -0.110566)
(0.0292778 0.00186898 0.0847031)
(-0.0110627 0.00922907 -0.0409149)
(-0.452332 -0.00426028 0.178152)
(0.35515 -0.0465801 -0.415951)
(-0.277733 0.128345 0.441818)
(-0.0232971 -0.139634 -0.335136)
(-0.064664 0.345211 0.436783)
(0.100445 -0.088026 0.231092)
(-0.0593125 0.102566 0.487452)
(0.00447073 0.427909 0.254997)
(-0.290791 -0.108287 0.0988237)
(0.0873792 0.0181075 -0.174715)
(0.0312854 0.00641469 0.0993899)
(0.620774 0.074924 -0.0168787)
(-0.560586 -0.0630467 0.398072)
(0.62038 0.292497 0.109894)
(-0.219885 0.0348893 0.523501)
(0.0255611 0.0410378 0.216702)
(-0.0624898 0.0573202 0.482785)
(0.0733316 0.106844 0.331132)
(-0.233379 0.171689 0.0390116)
(0.142106 -0.135536 -0.0736629)
(-0.0998587 0.0900721 -0.154299)
(0.454027 0.145506 -0.079262)
(-0.282335 -0.230883 0.208417)
(0.0141324 0.213067 -0.282956)
(0.105753 -0.0933969 0.479231)
(0.0413266 0.0273438 0.220428)
(-0.0826064 0.0119223 0.493538)
(0.0185138 -0.051806 0.31225)
(-0.0591244 0.521795 0.31082)
(0.0789816 0.239947 0.269419)
(0.0105748 0.347627 0.283351)
(0.521863 0.0357753 0.0132283)
(-0.398776 -0.0628102 0.0313325)
(0.37116 0.0209143 0.0151354)
(-0.277598 -0.210911 0.201633)
(0.49015 0.0928819 0.238643)
(-0.129823 0.0205072 0.450551)
(0.0538993 0.0777014 0.317969)
(-0.00627484 0.203625 0.359436)
(0.119929 0.193826 0.127079)
(0.0752451 0.222708 0.257361)
(0.436924 0.0858573 0.0322526)
(-0.281501 -0.169789 0.0240924)
(0.348389 0.166626 -0.042261)
(-0.164078 -0.244086 0.165727)
(-0.0347016 0.238307 -0.187052)
(0.0919213 -0.00641433 0.499016)
(0.0204321 0.0533826 0.246467)
(0.0914937 0.10662 0.196448)
(0.140696 0.0761224 0.372595)
(0.0568753 0.125909 0.439765)
(-0.320465 -0.0504326 -0.0159275)
(0.304525 -0.0200916 0.0199808)
(-0.148569 -0.0362533 0.0335868)
(-0.0783407 -0.0827486 0.0356479)
(0.232201 -0.0787517 0.472457)
(0.00123134 0.0121906 0.230738)
(0.198 0.06426 0.34542)
(0.0681983 0.0751675 0.50678)
(0.0455527 0.0605712 0.452522)
(0.364812 0.031809 0.0353864)
(-0.222652 -0.0308315 -0.0171808)
(0.350848 -0.0376919 0.0207455)
(-0.251776 0.0298646 0.0663124)
(0.233868 0.101425 0.333026)
(-0.0208932 0.0803506 0.315841)
(0.245388 0.0754967 0.348693)
(0.489949 -0.198781 -0.0570935)
(-0.319009 0.194846 0.0743239)
(0.16448 -0.167588 -0.0641788)
(-0.0930416 0.15365 0.0407134)
(0.116728 -0.127554 -0.0185146)
(-0.0601162 0.0807567 -0.0238309)
(0.0846866 -0.073797 0.0230192)
(-0.024574 0.067932 -0.0254477)
(0.0584825 -0.0629012 0.0226923)
(0.00618549 0.0606293 -0.0236231)
(0.410949 -0.136831 -0.0542951)
(-0.210181 0.548846 0.0669724)
(0.240804 -0.387341 -0.0592888)
(-0.158861 0.0922695 0.056472)
(0.0917864 -0.062633 -0.0206353)
(-0.0384564 0.0603028 0.0174391)
(0.0915742 -0.0527721 -0.0159756)
(-0.0254424 0.0201845 0.00777822)
(0.0451 -0.0226564 -0.0030689)
(0.0213412 0.0276921 -0.000541776)
(-0.444198 0.24255 0.134652)
(0.0490362 -0.579595 -0.488621)
(-0.417818 0.605161 0.489913)
(0.335809 0.0171352 0.109482)
(-0.304344 0.313215 0.217311)
(0.152514 -0.255533 -0.152457)
(-0.0941722 0.0281124 -0.102692)
(0.0455157 -0.0422487 0.0890719)
(0.00431818 0.0845396 -0.0347421)
(0.0654806 -0.0865123 0.0322601)
(0.000417977 0.0815524 -0.0198349)
(-0.658268 0.258606 0.255204)
(0.584962 0.247782 0.0603682)
(-0.186731 0.357581 0.713983)
(0.199875 0.0887851 0.0201326)
(-0.183561 0.573948 0.464142)
(0.175437 0.133291 0.213259)
(-0.294734 0.210159 0.117209)
(0.136293 -0.172353 -0.173689)
(-0.0821964 -0.0473698 0.0868332)
(0.0414943 0.0255662 -0.0443941)
(0.0351658 -0.00201847 0.0279947)
(-0.729626 -0.00790799 0.23029)
(0.643236 0.132267 0.084947)
(-0.172535 0.0726074 0.643741)
(0.150631 0.0851098 0.129763)
(-0.0663646 0.240718 0.466156)
(0.15726 0.0352428 0.0577409)
(-0.0992907 0.574886 0.19113)
(0.0628742 0.202063 0.434805)
(-0.254366 0.128151 -0.12253)
(0.0750213 -0.196815 0.0406241)
(-0.0232333 0.126052 -0.0112018)
(-0.650644 -0.246108 0.245244)
(0.694441 -0.0235288 0.0342209)
(-0.199766 -0.00611077 0.735441)
(0.0945662 -0.00516623 0.0563167)
(0.0715417 0.0821334 0.305019)
(0.163114 0.058716 0.434278)
(0.0108258 0.221741 0.371835)
(0.0579956 0.0999268 0.0874803)
(-0.133951 0.479806 0.423503)
(-0.235815 -0.0857055 -0.172475)
(0.0973401 -0.0829904 0.0293041)
(-0.466684 -0.219988 0.117978)
(0.0943662 0.48303 -0.410517)
(-0.232628 -0.327641 0.488894)
(0.122466 -0.116532 -0.072786)
(-0.0030045 -0.00291539 0.612635)
(0.00220966 0.0352383 0.459147)
(-0.0177214 0.0624018 0.450405)
(-0.0131512 0.102708 0.276274)
(-0.0391646 0.133959 0.539945)
(0.00707182 0.439705 0.233135)
(-0.180804 0.000309711 -0.0385651)
(0.630165 0.084854 -0.0665492)
(-0.441402 -0.467655 0.415457)
(0.617238 0.150233 0.123232)
(0.0776182 -0.0710311 0.411811)
(0.0122795 0.0217009 0.485867)
(-0.0359115 0.0334396 0.487524)
(-0.00754685 0.029648 0.385744)
(0.0215109 0.207951 0.247334)
(0.0617493 0.11713 0.160884)
(-0.00160143 0.53585 0.162458)
(0.504553 0.175017 -0.0629135)
(-0.270443 -0.29739 0.119468)
(0.0402457 0.318447 -0.211512)
(0.06261 -0.175677 0.424855)
(0.166415 0.0067611 0.227187)
(-0.0480896 0.0357463 0.524691)
(-0.00797329 0.0513376 0.411633)
(0.0696349 0.187238 0.408892)
(0.00249692 0.282928 0.254176)
(0.0923069 0.379143 0.149222)
(0.496872 0.0509057 0.00250852)
(-0.362229 -0.145294 0.017817)
(0.423541 0.0330693 -0.0167863)
(-0.284673 -0.306517 0.210554)
(0.489324 0.114584 0.217202)
(-0.0473935 -0.00673998 0.342377)
(-0.0711493 0.0994033 0.442488)
(-0.151681 0.289368 0.416946)
(-0.133208 0.242822 0.437432)
(-0.0466685 0.302882 0.34552)
(-0.284967 -0.156922 0.0165859)
(0.34391 0.114294 -0.046413)
(-0.132723 -0.26704 0.136175)
(0.0801781 0.258162 -0.236187)
(0.160791 -0.020852 0.312143)
(-0.0392877 -0.080896 0.42205)
(-0.235931 0.0079619 0.433426)
(0.0446438 0.0897581 0.481499)
(0.0420823 0.05889 0.307096)
(0.329265 0.0192667 0.0114159)
(-0.183789 -0.133471 -0.00345011)
(0.104881 0.00574831 0.0101177)
(-0.00138208 0.0358446 0.450294)
(0.0636752 -0.0298955 0.202371)
(0.0213657 -0.024434 0.443048)
(-0.105167 -0.024807 0.362838)
(-0.515266 0.130715 0.00685313)
(0.479785 -0.1701 -0.0492437)
(-0.278542 0.201398 -0.00852595)
(0.210803 -0.167614 -0.00728347)
(-0.108955 0.176076 0.0305629)
(0.0657046 -0.117602 -0.0155637)
(-0.0258228 0.116294 -0.0255808)
(0.0858787 -0.0989167 0.0243529)
(-0.0208783 0.0810921 -0.0214133)
(0.0514417 -0.0674765 0.0194685)
(0.0168584 0.0631719 -0.0161926)
(-0.436938 0.281324 -0.0345068)
(0.383868 -0.590201 0.0655353)
(-0.304716 0.59101 -0.0224557)
(0.190333 -0.464601 0.0158136)
(-0.141395 0.374228 -0.00176764)
(0.153728 -0.234417 0.00666078)
(-0.103734 0.00645159 0.0300033)
(0.0716689 -0.023662 -0.0193919)
(-0.00495882 0.04674 0.00856592)
(0.0357516 -0.0463124 0.00299414)
(0.0218764 0.0575598 -0.0102079)
(-0.674193 0.329236 0.227051)
(0.658176 -0.0403279 0.302847)
(-0.249316 0.794611 0.274956)
(0.256776 -0.0793741 0.0868869)
(-0.201484 0.54412 0.48016)
(0.23712 0.0634409 0.181199)
(-0.335546 0.242177 -0.0890374)
(0.0820243 -0.222698 0.0626538)
(-0.0485389 0.132026 -0.015357)
(0.0624935 -0.0917961 0.0156033)
(0.00267154 0.0670114 0.000348489)
(-0.847458 0.0818187 -0.0664402)
(0.685591 -0.0529916 -0.0490135)
(0.0294574 0.463575 0.395633)
(0.13412 0.263272 0.244348)
(-0.0562109 0.38594 0.307049)
(0.0934289 -0.0039472 -0.007539)
(-0.183598 0.525552 0.451366)
(-0.258219 -0.145089 -0.194921)
(0.109852 0.00219653 0.0754274)
(-0.0275213 -0.0431088 -0.0211764)
(0.061404 0.06755 -0.00867021)
(-0.840931 -0.0258873 0.0433126)
(0.647503 0.142136 0.0715892)
(0.175926 0.133911 0.567543)
(0.115052 0.0521339 0.313439)
(-0.0382733 0.42604 0.516976)
(-0.151593 0.279235 0.119554)
(-0.00188788 0.233192 0.135204)
(0.107095 0.397285 0.00837123)
(-0.210822 0.059257 -0.00258146)
(0.107986 -0.110052 -0.0276815)
(-0.0700313 0.0105087 0.0496199)
(-0.80219 -0.0667074 -0.0828188)
(0.712098 0.0722699 0.045702)
(0.035118 -0.192203 0.52296)
(0.0476452 0.00698295 0.33424)
(-0.101876 0.16836 0.465362)
(-0.00764764 0.245532 0.231181)
(0.0370948 0.486587 0.117667)
(-0.0313536 0.307128 0.0121378)
(-0.0313163 0.521688 0.118692)
(-0.252624 -0.0987809 0.0171265)
(0.212111 0.0302782 -0.0887467)
(-0.677043 -0.362522 0.219692)
(0.7786 0.0571094 0.143457)
(-0.0631483 -0.181825 0.275723)
(-0.0567235 -0.262297 0.376747)
(-0.183046 0.117442 0.390816)
(-0.00494494 0.14567 0.446009)
(-0.0154414 0.187337 0.368843)
(-0.121578 0.283014 0.186339)
(0.174966 0.0686078 0.191672)
(0.0609655 0.445328 0.0655362)
(-0.393622 0.0209768 0.121875)
(0.0840238 0.445069 0.105017)
(-0.21708 -0.459365 0.479257)
(0.0322082 -0.00251193 -0.0897252)
(-0.127202 -0.351996 0.523809)
(0.00108812 -0.102599 0.524144)
(0.0310985 0.0461971 0.356492)
(0.00877887 0.14327 0.221565)
(-0.00833697 0.464881 0.220632)
(0.110491 0.264619 0.017748)
(-0.0607591 0.472259 0.103497)
(0.602434 0.0996561 -0.110534)
(-0.490297 -0.554602 0.164062)
(0.618423 0.201073 0.151128)
(-0.0592154 -0.225118 0.253603)
(-0.0645901 -0.309175 0.387548)
(0.0406651 -0.17867 0.483384)
(0.0414276 0.0694942 0.309931)
(0.0645591 0.34111 0.217115)
(-0.0396489 0.183562 0.09854)
(0.130107 0.376311 0.185646)
(0.481781 0.15534 0.0791823)
(-0.300288 -0.269923 -0.0747061)
(0.0038857 0.268649 0.105904)
(0.0293443 -0.260266 0.446922)
(0.0363608 -0.101715 -0.0369999)
(-0.115285 -0.239538 0.437913)
(0.0346383 -0.0224065 0.420393)
(0.07291 0.162517 0.109429)
(0.0896129 0.279109 0.117221)
(0.146886 0.105208 0.0272134)
(-0.337974 -0.331167 0.116093)
(0.523525 0.0817727 0.228702)
(-0.163735 -0.126159 0.0759641)
(0.173896 -0.0926919 0.263842)
(0.108492 -0.00906525 0.160959)
(0.937891 -0.0569214 -0.423752)
(0.153546 0.130725 -0.0433064)
(0.0301617 -0.0141524 0.201962)
(-0.118453 -0.0484786 0.122741)
(-0.0212419 -0.0263263 0.132181)
(0.514785 0.0458486 -0.240674)
(-0.513147 0.128181 -0.0801156)
(0.477547 -0.170183 0.118494)
(-0.277975 0.215795 -0.0450195)
(0.199783 -0.180789 0.0454905)
(-0.100037 0.189327 -0.0290196)
(0.0610391 -0.133088 0.011352)
(-0.0204587 0.12788 0.00470046)
(0.0881366 -0.110797 0.000693338)
(-0.0300594 0.0929864 -0.0101386)
(0.0637981 -0.0772286 0.0115292)
(0.00170266 0.0687586 -0.0200387)
(0.560124 -0.101013 0.0168819)
(-0.440148 0.281103 -0.0375154)
(0.405713 -0.597166 0.00294376)
(-0.321033 0.60551 -0.0299313)
(0.197898 -0.486307 0.0224112)
(-0.150544 0.405765 -0.0410273)
(0.150505 -0.268242 0.0327823)
(-0.101826 0.00699614 -0.0574253)
(0.0702566 -0.00421548 0.045195)
(-0.000232121 0.0269435 -0.0416864)
(0.0256616 -0.0272261 0.0268143)
(0.0339677 0.0450046 -0.0218207)
(0.721312 -0.129943 0.0754066)
(-0.665865 0.310902 -0.302416)
(0.78788 -0.0636598 0.103146)
(-0.322698 0.775339 0.00190524)
(0.234768 -0.0937589 0.033565)
(-0.0770761 0.605117 0.0866872)
(0.285078 0.0874683 -0.110726)
(-0.311097 0.250356 0.128671)
(0.0605787 -0.239895 -0.0748744)
(-0.0587233 0.152747 0.0188831)
(0.0816862 -0.113121 -0.00677343)
(-0.0249262 0.0828084 -0.0222899)
(0.684456 -0.0836829 0.0585087)
(-0.837161 0.0696068 -0.00857953)
(0.739795 0.0591069 0.192755)
(0.032919 0.702755 -0.00994618)
(0.12954 0.338778 -0.00392954)
(-0.0738682 0.63612 0.260328)
(0.0927381 0.0376046 0.000655451)
(-0.067973 0.605104 -0.0295355)
(-0.244693 -0.161062 0.203693)
(0.108601 -0.0203848 -0.109421)
(-0.0417012 -0.0177194 0.05149)
(0.0850211 0.048591 -0.021914)
(0.720278 -0.0136901 0.0705909)
(-0.851341 -0.0252557 -0.11459)
(0.696365 0.065527 0.0951849)
(0.192834 0.114044 0.0167618)
(0.290191 0.147441 0.0340215)
(0.116066 0.362787 0.122076)
(0.00999842 0.48523 -0.0567376)
(0.0760755 0.266555 0.017537)
(0.188645 0.387691 -0.0523964)
(-0.234807 0.0732644 0.118433)
(0.122634 -0.145881 -0.0362435)
(-0.115122 0.044199 -0.0303083)
(-0.794785 -0.0573859 0.00774169)
(0.728852 0.11501 0.165515)
(0.246816 -0.33184 -0.0196717)
(0.0748165 -0.239241 -0.0439908)
(0.910067 -0.0158459 0.220574)
(0.559662 0.197307 -0.153813)
(0.0188731 0.465969 0.011016)
(0.00862669 0.353207 0.0758011)
(-0.032804 0.559183 -0.0904949)
(-0.277585 -0.124658 0.144314)
(0.252552 0.0220991 0.0154028)
(-0.671486 -0.350626 -0.288306)
(0.879266 -0.0900521 0.0719463)
(-0.157659 -0.301947 0.121328)
(0.0525165 -0.335898 -0.0535858)
(0.220537 -0.10789 0.00906341)
(1.3873 0.0749008 -0.0144249)
(0.906083 0.365161 -0.116284)
(0.0500512 0.261116 -0.0416521)
(0.162484 0.142693 0.0384042)
(0.0848987 0.444598 -0.046039)
(-0.44479 0.013992 0.0051035)
(0.0952705 0.461697 -0.0487961)
(0.0416176 -0.49616 -0.00782343)
(0.0685718 -0.117556 0.0414598)
(-0.0295995 -0.363776 -0.0630245)
(0.239448 -0.0868991 -0.0228558)
(1.03923 0.237033 0.0519304)
(0.142442 0.339391 -0.0154972)
(-0.0539118 0.33733 0.126393)
(-0.125669 0.482467 0.0476458)
(0.60681 0.108571 0.166739)
(-0.489968 -0.575816 -0.214109)
(0.75054 0.0315299 0.0280627)
(-0.162243 -0.265255 -0.0325507)
(0.0589857 -0.360156 -0.163125)
(0.0939332 -0.172014 -0.033212)
(1.30062 0.0979723 0.00780731)
(1.0647 0.389965 -0.198264)
(0.119124 0.146927 0.031069)
(0.479617 0.163613 -0.0156653)
(-0.302216 -0.28751 0.0196828)
(-0.00664165 0.297656 -0.0666228)
(0.217851 -0.332818 -0.020382)
(0.0207547 -0.149208 0.0162105)
(0.0955067 -0.224347 -0.0243563)
(0.218949 -0.134872 0.00200855)
(1.01293 0.289177 -0.301939)
(-0.351433 -0.369171 -0.131159)
(0.65609 -0.0410441 0.037134)
(-0.164679 -0.115249 0.0627407)
(0.125923 -0.081422 -0.0215072)
(0.120879 -0.0719272 0.0169197)
(0.222145 0.153553 0.0115834)
(-0.106602 0.0519356 0.0606273)
(-0.2862 0.0554358 0.0574709)
(-0.450516 0.128059 -0.0942376)
(0.509122 -0.203528 0.133825)
(-0.354118 0.201015 -0.139958)
(0.230837 -0.18267 0.12045)
(-0.145733 0.166981 -0.0926289)
(0.0950865 -0.132542 0.0651167)
(-0.0349071 0.0905357 -0.0229564)
(0.0705411 -0.0761071 0.0178477)
(-0.00937052 0.0655095 -0.0138364)
(0.0411494 -0.0600333 0.0106694)
(0.0269073 0.0622172 -0.0134562)
(-0.533288 0.0505131 -0.0528248)
(0.539875 -0.0664908 0.0534816)
(-0.518473 0.0574637 -0.0969736)
(0.407929 -0.14872 0.116388)
(-0.229809 0.578156 -0.0620081)
(0.212052 -0.459268 0.0507378)
(-0.118443 0.382719 -0.0524585)
(0.059884 -0.309022 0.00866222)
(-0.0610208 0.156057 -0.03559)
(0.0856172 -0.114117 0.0322878)
(-0.0269525 0.0771225 -0.0343999)
(0.0558288 -0.0647522 0.0288409)
(0.00636366 0.0552791 -0.030539)
(-0.53462 0.0863386 -0.0754996)
(0.548598 -0.10158 0.0819685)
(-0.451455 0.269289 -0.212216)
(0.0654529 -0.584986 0.580296)
(-0.295213 0.762807 -0.321406)
(0.356956 -0.104234 -0.0410733)
(-0.21645 0.639828 -0.140277)
(-0.233031 -0.207846 0.123175)
(0.100476 0.0413648 0.0430282)
(-0.00409881 -0.0721137 -0.0231593)
(0.0404291 0.0608426 0.000243139)
(0.0195638 -0.0630049 -0.00431625)
(0.0448951 0.0674195 -0.00879952)
(-0.601337 0.0451857 -0.0945977)
(0.781791 -0.0916332 0.130884)
(-0.643615 0.27084 -0.384321)
(0.811633 0.0281997 0.187821)
(-0.0391955 0.539038 -0.276069)
(0.187326 0.312421 -0.16389)
(-0.161259 0.290373 -0.0389156)
(0.102917 0.326583 -0.0755698)
(-0.234036 0.131131 -0.0675441)
(0.0615191 -0.173569 0.132632)
(-0.0204613 0.0870057 -0.0795533)
(0.0623634 -0.0785182 0.0565805)
(-0.00462648 0.0586648 -0.0505579)
(-0.613325 -0.00780394 -0.0880655)
(0.717488 -0.0256875 0.119386)
(-0.724028 -0.00889382 -0.375953)
(0.816575 0.0561995 0.137727)
(-0.112238 0.022178 -0.441998)
(-0.067235 0.172824 -0.362107)
(-0.124459 0.514015 -0.3501)
(0.0852956 0.176068 -0.0112681)
(-0.0600456 0.572282 -0.181026)
(-0.209297 -0.116472 0.137062)
(0.0962812 -0.0154372 0.0568358)
(-0.00965966 -0.0443236 -0.0285097)
(0.0807738 0.0498476 -0.00247136)
(-0.607611 -0.0519536 -0.0930296)
(0.781472 0.034389 0.125498)
(-0.649643 -0.250372 -0.364835)
(0.852617 0.0472503 0.00636167)
(-0.162514 -0.0306611 -0.282204)
(0.0775844 -0.136071 -0.29921)
(-0.060985 0.0476808 -0.387891)
(-0.0723041 0.467417 -0.258954)
(0.0937318 0.407215 -0.213478)
(0.115216 0.43124 -0.0392629)
(-0.1963 0.0463728 0.00615542)
(0.0807121 -0.123419 0.136015)
(-0.0392781 0.0446646 -0.0474355)
(-0.554548 -0.0929007 -0.0698176)
(0.564781 0.0361558 0.0662758)
(-0.478317 -0.237237 -0.188904)
(0.126524 0.49075 0.503346)
(-0.0136898 -0.311047 -0.26499)
(0.0541952 -0.12147 -0.118224)
(-0.0859821 -0.0621756 -0.44679)
(-0.0454449 0.0787779 -0.323243)
(-0.139158 0.201224 -0.290448)
(0.00237986 0.33103 -0.150381)
(-0.0243255 0.506569 -0.124069)
(-0.21806 -0.0942597 0.10354)
(0.213871 0.0418438 0.0354251)
(-0.564762 -0.0609705 -0.0435973)
(0.594393 0.0156163 0.0612105)
(-0.598606 -0.0621821 -0.0385594)
(0.641828 0.0882469 0.1352)
(-0.455594 -0.498384 -0.429686)
(0.683072 0.0423348 0.0845551)
(-0.128003 -0.372219 -0.477593)
(-0.00519654 -0.113418 -0.418843)
(-0.109222 0.0126946 -0.451506)
(-0.0808886 0.168716 -0.285657)
(-0.0183155 0.385823 -0.166219)
(-0.0424532 0.426571 0.0465137)
(0.0352105 0.384518 -0.0296773)
(-0.525232 -0.0775588 -0.0389445)
(0.54657 0.0387013 0.046781)
(-0.460361 -0.138579 -0.0825306)
(0.516574 0.166169 0.129487)
(-0.297985 -0.297607 -0.18329)
(0.0354009 0.33791 0.244886)
(0.14421 -0.206987 -0.22194)
(0.0618368 -0.25264 -0.144896)
(0.00978154 -0.119022 -0.382477)
(-0.0463394 0.0519445 -0.386528)
(-0.0533419 0.253885 -0.202895)
(0.0711303 0.515141 -0.10931)
(0.50655 0.0436384 0.0616152)
(-0.391189 -0.131738 -0.0695561)
(0.442026 0.019743 0.0649246)
(-0.307249 -0.28913 -0.267112)
(0.576535 -0.0723755 0.03534)
(-0.219257 -0.142743 -0.358415)
(0.0231537 -0.00776933 -0.334221)
(-0.058859 0.160661 -0.194511)
(0.0339793 0.221515 -0.101637)
(0.129214 0.190447 0.234939)
(-0.0180062 0.0117537 -0.00360887)
(-0.101095 -0.0682701 -0.111968)
(0.143549 0.0260575 -0.0991483)
(-0.438878 0.0713633 -0.0642694)
(0.431019 -0.106504 0.0782918)
(-0.293698 0.186645 -0.152978)
(0.256709 -0.185201 0.125532)
(-0.154933 0.162084 -0.117783)
(0.132186 -0.146429 0.0893884)
(-0.0715822 0.118847 -0.0553726)
(0.0980622 -0.0992633 0.0379458)
(-0.0373458 0.0799562 -0.0267636)
(0.0642057 -0.0669723 0.0195263)
(0.00279401 0.0580752 -0.0189005)
(-0.494628 0.0389986 -0.0447006)
(0.501018 -0.0700082 0.0477933)
(-0.447692 0.0808308 -0.0877746)
(0.512732 -0.168088 0.138771)
(-0.372366 0.209503 -0.145038)
(0.251164 -0.185372 0.117644)
(-0.153379 0.177901 -0.115689)
(0.126877 -0.13182 0.0796426)
(-0.0594253 0.0678256 -0.0559788)
(0.0709115 -0.0522809 0.0401086)
(-0.00467724 0.0399935 -0.0371424)
(0.0296209 -0.0432906 0.0293131)
(0.03459 0.0498452 -0.0324991)
(-0.539766 0.0158535 -0.0525087)
(0.537122 -0.0500791 0.0477391)
(-0.535312 -0.0170471 -0.0641639)
(0.476471 -0.103061 0.121741)
(-0.241235 0.490864 -0.50457)
(0.190053 -0.46145 0.421288)
(-0.076042 0.324313 -0.32258)
(-0.0326723 -0.297265 0.261937)
(-0.00729606 0.186164 -0.121256)
(0.0684785 -0.152271 0.0739388)
(-0.030633 0.102594 -0.044576)
(0.0734868 -0.0840633 0.0303774)
(-0.0142132 0.0619014 -0.0272073)
(-0.512318 0.00842706 -0.0912774)
(0.488161 -0.0322819 0.0836606)
(-0.433904 -0.0144792 -0.291642)
(0.0713463 -0.0261226 0.543794)
(-0.24256 0.648144 -0.534878)
(0.403271 -0.0655255 0.0279299)
(-0.212921 0.568973 -0.241508)
(-0.187065 -0.153587 0.173464)
(0.0626166 0.0259599 -0.0281965)
(-0.0142779 -0.0457793 0.0500476)
(0.0661415 0.0249639 -0.0494141)
(-0.00982732 -0.0454388 0.0416348)
(0.0700915 0.0549569 -0.049244)
(-0.539388 -0.00991044 -0.080233)
(0.524207 -0.0203902 0.0933671)
(-0.44028 -0.00515725 -0.222832)
(0.0739318 -0.0319377 0.645381)
(-0.0677093 0.168616 -0.553623)
(0.281543 0.0455458 -0.0732795)
(-0.081156 0.12492 -0.327665)
(0.143383 0.339403 0.0340594)
(-0.235307 0.0822728 -0.188918)
(0.0293595 -0.126283 0.175868)
(-0.0346782 0.0773176 -0.0766254)
(0.103854 -0.0713682 0.0504517)
(-0.0557479 0.0463766 -0.0376979)
(-0.515204 -0.00481209 -0.0889943)
(0.493408 -0.0433051 0.0826344)
(-0.440002 0.0682244 -0.284493)
(0.104792 -0.0947495 0.536493)
(-0.033376 -0.110545 -0.506167)
(0.222794 0.0355289 -0.0589346)
(-0.0928583 0.0389799 -0.335096)
(0.150922 0.0713479 -0.11552)
(-0.127592 0.562381 -0.195142)
(-0.195521 -0.120208 0.094916)
(0.0900305 0.000957965 -0.00183622)
(-0.0403511 -0.0437585 0.0441406)
(0.11699 0.0423108 -0.0598231)
(-0.572024 -0.0367132 -0.0547554)
(0.591837 0.00740046 0.0555193)
(-0.614112 -0.00260464 -0.0760555)
(0.65213 0.0649015 0.130269)
(-0.514444 -0.410563 -0.497121)
(0.706537 0.100085 -0.00948041)
(-0.12978 -0.0286397 -0.375222)
(0.103452 0.0167034 -0.133229)
(-0.031544 0.0850521 -0.290375)
(0.0842107 0.432503 -0.0278267)
(-0.249639 0.0239832 -0.0854336)
(0.118341 -0.0383053 0.137377)
(-0.081809 0.0786372 -0.0105432)
(-0.500747 -0.0534349 -0.0449902)
(0.509095 0.0205454 0.0563905)
(-0.43805 -0.0949663 -0.110634)
(0.538487 0.119736 0.172608)
(-0.311666 -0.249933 -0.2902)
(-0.0448803 0.294285 0.388406)
(0.147483 -0.158175 -0.329999)
(0.157091 -0.011448 -0.137253)
(-0.0522803 0.0219374 -0.288609)
(0.101551 0.0530398 -0.172963)
(-0.0376922 0.496594 -0.142692)
(0.0610801 0.278316 -0.0939723)
(-0.0257074 0.402428 -0.185703)
(-0.535054 -0.0487974 -0.0378258)
(0.551851 0.00293993 0.0420134)
(-0.50709 -0.0610522 -0.0711836)
(0.529201 0.0404541 0.0814058)
(-0.436724 -0.145078 -0.117383)
(0.389038 0.0603629 0.0666469)
(-0.292924 -0.270397 -0.279849)
(0.637934 0.0387673 -0.0759553)
(-0.063291 0.00337683 -0.264795)
(0.0656404 0.0585744 -0.178992)
(0.0723643 0.267573 -0.224631)
(0.106069 0.341945 -0.0960324)
(0.449442 0.0888746 0.0625439)
(-0.299553 -0.181779 -0.109378)
(0.363536 0.190094 0.116807)
(-0.186343 -0.263263 -0.216468)
(0.0289515 0.267785 0.25841)
(0.168281 0.029067 -0.206557)
(0.112456 0.0333729 -0.101029)
(-0.00329331 0.176241 -0.249189)
(-0.155119 0.424238 -0.323547)
(0.0376155 0.0135519 -0.0141684)
(0.293479 0.0327854 -0.147151)
(0.0436289 -0.00801729 -0.0813945)
(-0.106963 0.384973 -0.316483)
(0.0266268 0.150133 -0.345422)
(-0.413723 0.0775624 -0.0499424)
(0.42167 -0.108245 0.0687739)
(-0.318469 0.103015 -0.0806818)
(0.272685 -0.110232 0.0749283)
(-0.18128 0.0928619 -0.0649933)
(0.167143 -0.0850177 0.0467607)
(-0.0862879 0.0640976 -0.0250535)
(0.101061 -0.0587083 0.0161165)
(-0.0282229 0.049931 -0.0105384)
(0.049423 -0.0482295 0.00835913)
(0.0218466 0.0486758 -0.0110349)
(-0.497266 0.0309619 -0.0234371)
(0.494582 -0.053228 0.0260726)
(-0.439908 0.0621452 -0.0428602)
(0.413053 -0.103076 0.0679499)
(-0.285944 0.144649 -0.129715)
(0.269145 -0.15263 0.125513)
(-0.166466 0.122211 -0.105657)
(0.160569 -0.1184 0.0896851)
(-0.0874323 0.0849393 -0.0719859)
(0.106601 -0.0763669 0.0547295)
(-0.0374512 0.0587051 -0.0436284)
(0.0608189 -0.0535805 0.0327865)
(0.00798252 0.0465894 -0.0281107)
(-0.504104 0.0377962 -0.0397971)
(0.510835 -0.0661432 0.0539194)
(-0.457047 0.0887646 -0.0784082)
(0.499538 -0.159575 0.157938)
(-0.355944 0.13716 -0.191898)
(0.245843 -0.147035 0.15766)
(-0.148283 0.111237 -0.151605)
(0.11875 -0.104845 0.0982647)