/*--------------------------------*- C++ -*----------------------------------*\
  =========                 |
  \\      /  F ield         | OpenFOAM: The Open Source CFD Toolbox
   \\    /   O peration     | Website:  https://openfoam.org
    \\  /    A nd           | Version:  10
     \\/     M anipulation  |
\*---------------------------------------------------------------------------*/
FoamFile
{
    format      ascii;
    class       volVectorField;
    location    "0.1";
    object      wallShearStress;
}
// * * * * * * * * * * * * * * * * * * * * * * * * * * * * * * * * * * * * * //

dimensions      [0 2 -2 0 0 0 0];

internalField   uniform (0 0 0);

boundaryField
{
    inlet
    {
        type            calculated;
        value           nonuniform List<vector> 0();
    }
    outlet
    {
        type            calculated;
        value           nonuniform List<vector> 0();
    }
    walls
    {
        type            calculated;
        value           uniform (0 0 0);
    }
    drone
    {
        type            calculated;
        value           nonuniform List<vector> 
12529
(
(-0.00869967 -0.00135376 0.000423447)
(-0.0149539 0.00679117 -0.00507224)
(-0.00169703 -0.00377517 -0.00226094)
(-0.00140185 -0.00332576 -0.00205827)
(-0.00793458 -0.0111332 0.00299393)
(-0.0107472 -0.00911332 0.0020466)
(-0.00736181 -0.00191058 -0.00114197)
(-0.00188802 -0.00235583 0.000228366)
(-0.0124143 0.0020706 0.00439925)
(-0.00179453 -0.00194802 0.00254453)
(-0.000902248 -0.00143725 -0.0024423)
(-0.0100076 -0.000658479 -0.00294097)
(0.00171806 -0.000369816 0.00151574)
(-0.00640913 0.00274337 0.00125503)
(-0.0161643 -0.00950152 -8.44963e-05)
(-0.00333152 -0.00104198 0.000440981)
(-0.00504076 0.000353819 -0.00139371)
(-0.000451648 -0.000896952 0.00109787)
(-0.000390043 -0.000777288 0.000900982)
(-0.00281561 -0.00554992 -9.18317e-05)
(-0.00289481 -0.00451472 -4.38858e-05)
(-0.00390548 -0.00650913 -0.00301957)
(-0.00377773 0.00224408 -0.00282662)
(-0.00327294 0.00263531 -0.00396438)
(-0.00767044 -0.00429055 -2.10361e-05)
(-0.0174163 0.000951358 0.000574188)
(-0.00686786 0.00601408 -0.000583521)
(-0.00202034 0.000420374 -0.000279089)
(-0.00105411 -0.0015044 -0.00112754)
(-0.00236091 -0.00142327 0.000545941)
(-0.00210903 -0.00203573 0.00216158)
(-0.00166216 -0.00107583 0.0011988)
(-0.0161964 -0.00499847 0.000361351)
(-0.014908 -0.00330626 0.00136369)
(-0.0115904 0.00629092 -0.00252696)
(-0.00602768 -0.00363619 -0.000825531)
(-0.00393153 -0.00500157 0.000141052)
(-0.0105608 -0.00453354 -0.00173986)
(-0.0029344 -0.00389954 -0.00203894)
(-0.00435991 -0.00555276 -0.00192973)
(-0.00995654 0.00230858 -0.00162169)
(-0.00169933 -0.000103198 -0.00233658)
(-0.0039011 0.00385084 -0.000496726)
(-0.00102743 -0.00237397 -0.000419357)
(-0.00195928 5.9162e-05 0.00194262)
(-0.025181 -0.00145102 -0.000900277)
(-0.00880241 -0.00059545 -2.09649e-05)
(-0.0081139 -0.00168968 0.000434284)
(-0.00256196 -0.000267693 0.00135158)
(-0.00860205 0.000425989 -9.11893e-05)
(-0.00881275 -0.000357273 9.34173e-05)
(0.00059897 -0.000150887 -0.00195607)
(-0.00311307 -9.31519e-05 0.000543833)
(-0.00328724 -7.73956e-05 0.000614392)
(-0.00287235 -0.000142181 0.000559994)
(-0.00593306 0.000200081 -3.19437e-05)
(-0.00439684 -0.000305273 -0.00021833)
(-0.00541628 0.000204643 0.000160282)
(-0.00634582 -0.000211017 0.000380481)
(-0.00952444 -0.000318394 0.000329869)
(-0.00865035 -0.000341572 0.000272011)
(-0.0060367 0.000146366 0.00105959)
(-0.00938251 -0.0018218 -0.000363818)
(-0.00598551 6.19167e-05 0.00079976)
(-0.0107857 -0.00248709 -0.0009143)
(-0.00871429 -0.00132173 -3.29925e-05)
(-0.00867289 -0.0018766 0.000255479)
(-0.0146732 -0.00499581 0.00200428)
(-0.0079183 -0.00184087 0.000521423)
(-0.00342144 0.00077801 -0.000415937)
(-0.00784577 -0.00187775 0.000474552)
(-0.00835062 -0.00212736 0.00171936)
(-0.00339327 0.000577177 -0.000176813)
(-0.00826492 -0.00183948 7.47192e-05)
(-0.00905679 -0.000623458 -0.000140566)
(-0.00791916 -0.000522448 -0.000281722)
(-0.00809097 -0.00322992 0.00367513)
(-0.00346686 0.000795226 -0.000478658)
(-0.00920408 -0.00276274 0.00205437)
(-0.00413958 2.96354e-05 0.000946802)
(-0.0062282 0.000828155 0.00139339)
(-0.0109 0.00109142 0.00189097)
(-0.00340736 -0.00072511 0.000962583)
(-0.00406367 -0.000346192 0.00117613)
(-0.000437919 -0.00120319 0.00177488)
(-0.0020044 -0.000225568 0.00108192)
(-0.000414881 -0.00071709 0.00131619)
(-0.000477808 -0.0019047 0.00209438)
(-0.000375166 -0.00120963 0.00181757)
(-0.000427197 -0.000214934 0.00126566)
(-0.00232624 -0.000268642 0.00126087)
(-0.000399573 -0.000100352 0.00100572)
(0.000100274 -0.000604578 -0.00467344)
(0.000124593 -0.000311589 -0.00388463)
(-0.00413982 0.00106974 -0.00159444)
(0.000318237 0.000218045 -0.00121573)
(-0.000995061 0.000668287 -0.00194468)
(-0.00057874 0.000185348 -0.000229703)
(-0.0006062 0.000324715 -0.000739453)
(-0.00494113 -7.72568e-05 0.00253209)
(-0.00298452 -0.000183377 0.000915405)
(-0.00268988 -2.95388e-05 0.000930834)
(-0.00843706 0.000742658 0.000406791)
(-0.00408727 0.000698749 -0.00213586)
(-0.00288896 -0.000168649 0.000496731)
(-0.00286533 -0.00012134 -2.0507e-05)
(-0.00249767 -0.000330663 0.000576004)
(-0.00377536 -0.000357751 0.000863703)
(-0.00246666 -0.000427584 0.000349718)
(-0.00256716 -0.00015772 0.00085246)
(-0.00264561 -0.000325623 0.000218421)
(-0.00317866 -0.000306724 0.000505031)
(-0.00306414 -0.00027797 -4.12186e-05)
(-0.00240707 -0.00039554 0.000187523)
(-0.0163769 -0.00622645 0.00186403)
(-0.00847187 -0.00315401 0.000671767)
(-0.000283773 -0.000238696 -8.32824e-07)
(-0.00951272 0.00227586 0.00241398)
(-0.0144905 0.00125247 -0.000683911)
(-0.00575941 -0.00393041 0.00161854)
(-0.00105796 -0.000899442 0.000155023)
(-0.00726032 0.00100956 0.000719636)
(-0.00908813 0.00104126 0.0015265)
(-0.00643223 0.00080262 0.000487146)
(-0.00376613 -0.000176254 0.00201729)
(-0.0021102 -0.000412428 0.00136219)
(-0.00162576 -0.000182576 0.000983402)
(-0.00349651 -0.000255009 0.00097588)
(-0.00151308 -0.000119848 0.000942803)
(-0.00225074 0.000465853 -0.00122647)
(-0.00968227 0.000873013 0.000778134)
(-0.0109107 0.00134591 0.00135985)
(-0.00288836 0.000497587 -0.000945252)
(-0.00257449 0.000543437 -0.0012991)
(-0.00276531 0.000552508 -0.0015384)
(-0.00453137 0.000218969 -0.000199417)
(-0.00962571 -0.00216841 -0.000713097)
(-0.00552478 0.000137767 0.000937859)
(-0.0102366 -0.00201259 -0.000656792)
(-0.00590323 0.000233984 0.000880587)
(-0.00831524 -0.00212435 0.000334074)
(-0.00833055 -0.00314242 0.000484159)
(-0.00712393 -0.000716895 -0.000341338)
(-0.00791669 -0.00156445 2.65391e-05)
(-0.00922269 -0.00166079 0.000570329)
(-0.00640787 -0.00095384 6.11701e-05)
(-0.00839453 -0.00144635 0.000183632)
(-0.00798596 -0.00141947 1.91324e-05)
(-0.00932137 -0.00164229 0.000505841)
(-0.00899632 -0.00163906 0.00020519)
(-0.00721107 -0.00119208 1.30929e-05)
(-0.00398859 0.00016417 0.000503506)
(-0.00449327 -1.69596e-05 0.00233955)
(-0.00364417 -0.000138782 0.00090952)
(-0.00279588 -4.85886e-05 0.000897016)
(-0.00253558 4.60585e-05 0.000817635)
(-0.00263559 3.07786e-05 0.000812552)
(-0.00681307 -0.00510375 -0.00422957)
(-0.0075276 0.00162712 0.000983985)
(-0.0073673 0.0012236 0.000515614)
(-0.00433327 0.00165993 -0.00031308)
(-0.00657135 -0.000322786 0.000421129)
(5.58014e-05 -7.69801e-05 -0.000804232)
(0.000574403 -0.000851726 -0.00136967)
(-0.000366715 -0.00250287 -0.000366122)
(0.000740966 -0.00314565 -0.00308531)
(0.000432728 -0.00485862 -0.000711403)
(0.000663228 -0.00149966 -0.00147496)
(0.000746495 -0.00106105 -0.00112681)
(-6.10042e-05 -0.000153653 -0.000961048)
(0.000576655 -0.00143695 -0.0019097)
(-0.00617959 0.000404047 -0.00149632)
(-0.00348924 0.000222671 -0.00130808)
(-0.00363488 0.000310893 -0.00191479)
(-0.00370936 0.00024068 -0.00109488)
(-0.00257271 0.000152604 -0.000883149)
(-0.00276127 -0.000167165 0.000221055)
(-0.00293448 -0.000118478 2.0644e-05)
(-0.00396543 -0.000127261 0.000361204)
(-0.00608532 -0.00060583 0.00117274)
(-0.00228319 -0.000357474 0.000284581)
(-0.0034416 -0.000269188 0.000880921)
(-0.00267975 -0.000237586 0.000841986)
(-0.00267397 -0.000144764 0.000802473)
(-0.00273824 -0.000247421 0.000767543)
(-0.00260481 -0.00030274 0.000283658)
(-0.00251022 -0.000252454 0.000257419)
(-0.00304163 -0.000275928 2.87804e-05)
(-0.00226345 -0.000232779 0.000268647)
(-0.00260786 -0.000264226 0.000158696)
(-0.00203269 -0.00025859 9.58904e-05)
(-0.00228816 -0.000336705 0.000103592)
(-0.00261565 -0.000268466 -0.000219126)
(-0.00256724 -0.000239292 0.000251558)
(-0.00243661 -4.97578e-06 0.000174955)
(-0.00221623 -0.000185035 0.000276192)
(-0.00273037 -0.00019915 -0.000166338)
(-0.00231487 -0.000271293 0.000212835)
(-0.00215873 -0.000220495 0.000184376)
(-0.00225219 -6.2868e-06 0.000190602)
(-0.00211612 -0.000178665 0.000192233)
(-0.0024252 -0.000358417 -0.000163195)
(-0.00272815 -0.000104971 -3.20466e-05)
(-0.00262909 -0.000338677 -0.000204242)
(-0.00257333 -4.0711e-05 3.55644e-05)
(-0.00259757 -0.000162108 0.000627134)
(-0.00232915 -0.00010561 0.000560619)
(-0.00302149 -0.000141454 0.000507096)
(-0.00587165 -0.000398769 -0.000292482)
(-0.00638309 -0.000317657 -0.000180205)
(-0.00634297 -0.00030621 -0.000225683)
(-0.00495163 -0.000129746 -0.000320484)
(-0.0062409 -0.000162155 -0.000131519)
(-0.00670166 -0.000204914 -0.000109378)
(-0.0060019 -0.000147243 -4.47499e-05)
(-0.00488361 -0.000160267 -0.000278794)
(-0.00568703 5.31866e-06 -0.000253506)
(-0.00598704 -0.000201059 -0.000206371)
(-0.0062435 0.00485241 0.00501052)
(-0.0130634 0.00598865 -0.00343108)
(-0.0062652 0.00480562 0.00510064)
(-0.00033176 -5.02764e-05 0.00224596)
(-0.00606085 -0.000879283 0.000360224)
(-0.00598858 -0.000840002 0.000337005)
(-0.004903 0.00235619 0.00234784)
(-0.00549983 -0.000748661 0.000380788)
(-0.00655058 -0.000821509 0.000316149)
(-0.0200363 0.00932998 -0.00751163)
(-0.0092983 -0.000423453 0.000114493)
(0.000125888 -0.000333197 0.00204681)
(-0.000334496 -0.000153157 7.43735e-05)
(-0.000702741 -0.000816969 -0.000284609)
(-0.0011026 -0.000893445 -0.000925713)
(-0.00919669 -0.000409257 0.000176457)
(-4.65609e-05 -0.000808876 0.00323171)
(-0.000935217 -0.00140872 -0.00120545)
(-0.00559812 -0.000658166 -2.73607e-05)
(-0.0126055 -0.000656886 -6.31943e-05)
(-0.0198729 -0.00103672 0.00029408)
(-0.00481518 -0.00042327 -9.78962e-05)
(-0.00996977 -0.000709991 -0.000416675)
(-0.011245 0.00177054 0.00214698)
(-0.00406017 -0.00370865 0.000327293)
(-0.018976 0.000739699 -0.000475917)
(-0.0150291 0.0010158 -0.000675412)
(-0.00781649 -0.00131559 -0.00244507)
(-0.0142351 0.00108493 -0.000782533)
(-0.0047265 -0.00381657 3.00711e-05)
(-0.0180927 0.000793695 -0.000395256)
(-0.00913868 -0.00114818 -0.00234673)
(-0.014919 0.000810195 -0.00080728)
(-0.0100475 -0.00178742 -0.000222032)
(-0.00634603 -0.00544414 -0.000350095)
(-0.00254798 -0.00236424 0.000113001)
(-0.0196663 0.000800825 -0.000213285)
(-0.0080631 -0.00686866 -0.000498859)
(-0.0184733 0.000735971 -0.000252725)
(-0.00774136 -0.000735067 -0.00267555)
(-0.00771012 -0.00119782 -0.00259114)
(-0.0153891 -0.000905566 -0.00510892)
(-0.0097149 -0.00186125 -3.53129e-06)
(-0.00821877 -0.00155487 9.85239e-05)
(-0.0087893 -0.00199747 0.000548266)
(-0.00823768 -0.00155924 0.00015974)
(-0.00254097 -0.00223442 -0.000379227)
(-0.0167048 -0.00139793 -0.0051876)
(-0.00991841 -0.0019775 -6.80294e-05)
(-0.00888241 -0.00175835 0.000176479)
(-0.00756282 -0.00133866 6.52403e-05)
(-0.00855551 -0.00144073 0.000649709)
(-0.00536332 -0.00121291 0.000511509)
(-0.00614355 0.000264956 -8.4969e-05)
(-0.0066771 0.000371903 -0.000186198)
(-0.00425638 -0.000719885 0.000328463)
(-0.0053324 0.000407748 -0.000239735)
(-0.00617646 -0.00161554 0.00059707)
(-0.00693387 -0.00140446 0.000329507)
(-0.0080791 -0.00222773 0.000540919)
(-0.0072149 -0.00191225 0.000661289)
(-0.00830375 -0.00189395 0.000274643)
(-0.00836441 -0.00232035 0.000533534)
(-0.00507249 -0.00112722 0.000535934)
(-0.00790777 -0.002268 0.000625178)
(-0.00781176 -0.00144924 0.000625558)
(-0.00814838 -0.00213086 0.000414252)
(-0.011514 -0.00270311 0.000968893)
(-0.00642196 -0.00110904 0.000739722)
(-0.0112966 -0.00260637 0.0008334)
(-0.00624126 -0.0009113 0.000856723)
(-0.00565266 -0.00643607 -0.000695018)
(-0.0136343 0.00132075 -0.00335187)
(-0.00282249 -0.00240776 0.000334305)
(-0.00246245 -0.00201079 0.000248514)
(-0.00246317 -0.00201051 0.000248637)
(-0.002023 -0.00232752 -0.000424263)
(-0.00203414 -0.00212243 -0.000360839)
(-0.00205767 -0.00230668 -0.000421783)
(-0.00237452 -0.00265018 -0.00042032)
(-0.00214082 -0.00218662 -0.000275208)
(-0.0021414 -0.00218634 -0.000275253)
(-0.00246076 -0.00263338 -0.000464924)
(-0.00736227 -0.00571543 -0.00402094)
(-0.00176492 -0.00129521 8.9781e-05)
(-0.00175289 -0.00136322 5.45717e-05)
(-0.00236266 -0.00190668 6.50401e-05)
(-0.00262042 -0.00205891 0.000113442)
(-0.0056452 -0.00186702 -0.001717)
(-0.00148594 -0.0012107 3.97464e-05)
(-0.00185485 -0.00144534 0.000318409)
(-0.0011567 -0.000932076 0.000265796)
(-0.00208786 -0.00172296 0.000291015)
(-0.00687272 -0.00373192 -0.00275757)
(-0.00163921 -0.00137093 6.60494e-05)
(-0.0023225 -0.00181382 0.000539661)
(-0.00718898 -0.00183084 0.00219624)
(-0.00451453 -0.00136213 0.0013938)
(-0.00483363 -0.00138486 0.001483)
(-0.00187767 -0.00214731 -0.000245349)
(-0.0020722 -0.00226379 -0.000174123)
(-0.0016609 -0.0018402 -4.92681e-05)
(-0.00567439 -0.00421053 0.003265)
(-0.00283904 -0.000490959 -0.00125194)
(-0.00658158 -0.000904196 -0.00370268)
(-0.00728255 -0.00386857 -0.00303629)
(-0.00105501 -0.00200748 0.000155702)
(-0.00116338 -0.00224086 4.0571e-05)
(-0.0078632 0.00100906 0.00127432)
(-0.0100115 0.0013437 0.00142659)
(-0.0105206 0.00158123 0.00186328)
(-0.00794137 0.00152074 0.0034345)
(-0.00936895 0.00153368 0.000906176)
(-0.00543774 0.000587308 0.000865484)
(-0.00585181 0.00066717 0.000839291)
(-0.00879219 0.000603548 0.00114053)
(-0.0105238 0.00143198 0.000962087)
(-0.005402 0.000938456 0.000758526)
(-0.0072285 -0.000402912 0.00137709)
(-0.00471743 0.000343747 0.000804263)
(-0.00416782 9.19281e-06 0.000565246)
(-0.00768032 0.00035726 0.00108643)
(-0.00506791 0.000749084 0.000554331)
(-0.00349914 -0.000102375 0.0019155)
(-0.00525731 -0.000668362 0.00538554)
(-0.00268715 -0.00162378 0.00331883)
(-0.00229634 -0.000715824 0.00309404)
(-0.000388109 -0.000275047 0.000898777)
(-0.00323716 -0.000893942 0.00203435)
(-0.00142644 -0.000383077 0.00169788)
(-0.000399001 -0.000185101 0.000838159)
(-9.63514e-05 -0.00105468 0.000548957)
(-0.000173238 -0.00149867 0.00114126)
(-0.000405879 -0.00228667 -0.000157752)
(-0.000712771 -0.00125737 9.00034e-05)
(-0.000339148 -0.00115564 0.00109387)
(-0.000768488 -0.00143999 9.33171e-05)
(-0.000319138 -0.000983623 0.000954796)
(-4.73344e-05 -0.000855411 0.000596789)
(0.00017269 -0.00377499 -0.000285835)
(-0.000154128 -0.00171736 0.00129764)
(-0.000320374 -0.000796914 0.000553695)
(0.000215446 -0.000519342 0.000636043)
(-0.00054888 -0.000321591 0.00146403)
(0.000493663 -0.000302331 0.00105885)
(-0.000248953 -0.000231359 0.00100984)
(0.000340035 -0.000460969 0.000356714)
(-0.000359707 -0.000633319 0.000636749)
(5.01496e-05 -0.00033681 0.00118396)
(-0.000457553 -0.000641608 0.00161396)
(-0.000463425 -0.000451951 0.001496)
(-0.00189271 -0.000168348 0.000984981)
(-0.0064403 -0.00024193 0.00146145)
(-0.00209332 -0.000284443 0.00140212)
(-0.00107826 -0.000207783 0.00113111)
(-0.000144077 -0.000185266 0.00139229)
(5.66792e-06 -0.000104635 0.000864403)
(-0.0187016 -0.0028003 -0.00306127)
(-0.015096 -0.00545169 0.00142735)
(-0.00151032 -0.00346288 -0.00347118)
(-0.00181582 -0.00383001 -0.00321857)
(-0.00557533 -0.000399645 -0.000271559)
(-0.00632548 -0.00198443 -0.0011295)
(-0.0059233 -0.000264859 4.31661e-05)
(-0.00782081 -0.0146557 0.00413467)
(-0.00639225 -0.000574219 0.000169515)
(-0.0067261 -0.00249994 -0.000904222)
(-0.0057457 -0.000175836 -0.000220548)
(-0.00382074 -0.00172935 -0.00182043)
(-0.0025839 0.00111832 -0.00160934)
(-0.00148275 0.000815692 -0.00180166)
(-0.000593083 -0.00196148 -0.00248646)
(-0.00052073 -0.00199659 -0.00322543)
(-0.00242986 0.00117813 -0.00215211)
(-0.0023585 0.00127104 -0.00211642)
(-0.00131306 0.000910355 -0.00211726)
(-0.000274613 0.000405836 -0.000698169)
(-0.000125192 5.21803e-05 -0.000887166)
(-0.00857907 0.0016343 0.000414336)
(-0.00992687 0.00109765 0.00119372)
(-0.0080318 0.000345487 0.000686296)
(-0.00729304 0.00235693 -0.00206853)
(-0.00715878 0.00193905 -0.00180996)
(-0.0119784 0.00307163 -0.00349592)
(-0.0074812 0.00155557 -0.00186112)
(-0.00513165 0.000547605 -0.000577779)
(-0.00593807 0.00110578 -0.000879536)
(-0.00523384 0.000669909 -0.000586609)
(-0.000448789 -0.00254572 -0.0028525)
(-0.000343935 -0.00248491 -0.00349004)
(-3.77238e-05 -0.000467529 -0.000543823)
(0.000608776 -0.000273845 -0.000211634)
(-0.000385878 -0.000434562 -0.000190757)
(-0.000597328 -0.000160751 -7.91324e-05)
(-0.000440843 -0.000345772 -0.000655766)
(-0.000363902 -0.000347442 -0.000185218)
(2.58653e-05 -0.00033622 8.85974e-07)
(-0.00047062 -0.00031455 1.42016e-05)
(-0.000440203 0.000814312 -0.000808251)
(-7.01415e-05 0.000717502 -0.00131113)
(-0.000955537 0.000132378 -0.000875353)
(0.000602923 0.000348845 -0.000581232)
(-0.000190207 0.000334144 -0.00103664)
(0.000597262 -4.23947e-05 -0.000254434)
(-0.000491846 0.000408785 -0.000903849)
(-0.00325938 0.000332308 -0.00101121)
(-0.00466648 0.000782684 -0.00158001)
(-0.00316568 0.000504665 -0.00102257)
(-0.00384266 0.000352079 -0.00108729)
(-0.00428694 0.000193376 -0.000959614)
(-0.00401093 0.000238673 -0.000997928)
(-0.00294117 0.000144308 -0.00064231)
(-0.00198399 0.000398849 -0.0013609)
(-0.00221178 0.000501664 -0.00148581)
(-0.00606296 0.000225553 -0.00153035)
(-0.00383446 0.000180437 -0.000859544)
(-0.00645617 0.000781673 0.00280603)
(-0.0052811 9.49707e-05 0.00234721)
(-0.00240641 -0.000175411 0.00121124)
(-0.00187638 -0.000171338 0.000961901)
(-0.00280438 -0.000230704 0.00143213)
(-0.00171801 -0.000161318 0.000872446)
(-0.0224041 0.00559447 0.0058818)
(-0.0161567 0.00493882 0.00198561)
(-0.00912559 -0.000624263 -0.000171944)
(-0.00804147 -0.000436131 -0.000187798)
(-0.00752027 -0.000533179 -0.000426424)
(-0.00664826 -0.000235331 0.000326553)
(-0.00357088 -0.000111638 0.00020215)
(-0.00383679 -5.38515e-05 0.000253079)
(-0.00273074 -0.000215559 0.000189125)
(-0.0025246 -0.000133056 9.28467e-05)
(-0.0104497 0.00451739 0.00135161)
(-0.00452509 -0.0032632 0.000772309)
(-0.00452451 -0.0032665 0.000772868)
(-0.00621922 -0.00482062 0.00190825)
(-0.00759325 0.000893157 0.00459688)
(-0.00722486 -0.00154586 0.00471891)
(-0.00404725 -9.26083e-05 0.00182969)
(-0.00181888 -0.000261423 0.000988358)
(-0.00220111 -0.000244107 0.00115555)
(-0.0084156 -0.00012575 0.000127754)
(-0.00802836 -0.00201134 -0.00037079)
(-0.00847067 -0.00209974 -0.000586156)
(-0.00465743 -0.00268115 0.00262636)
(-0.00626793 0.000730318 0.00215412)
(-0.00342793 -0.000186296 0.000806505)
(-0.00724668 0.000415723 0.00113323)
(-0.014181 -0.00589383 0.00187584)
(-0.00545928 -0.00247016 0.000488804)
(-0.00757406 0.00226215 0.00315433)
(-0.00527717 -0.000381364 -0.000174134)
(-0.00223861 -0.00244706 -0.000406884)
(-0.00844664 -0.0016657 0.000493456)
(-0.0079208 -0.00146647 0.000312741)
(-0.00843586 -0.00151115 0.000346642)
(-0.00679987 -0.00211944 0.000321508)
(-0.00656891 -0.00160126 0.000980241)
(-0.00351835 -0.000168494 0.000315264)
(-0.00298969 -0.000167923 0.00156614)
(-0.00530375 -0.00302681 0.00319775)
(-0.00918063 0.000358832 -0.00015587)
(-0.0081055 0.000498256 -8.1378e-05)
(-0.00870756 0.000478179 -0.000208832)
(-0.0114617 -0.000971734 -0.000456775)
(-0.010192 -0.00121342 -0.00424318)
(-0.00790549 -0.000903739 0.000129605)
(-0.00480045 -0.00231763 0.00241433)
(-0.00559407 -0.00165832 -0.00136962)
(-0.00985663 -0.00285867 -0.00115482)
(1.94039e-05 -0.000813625 -0.000921053)
(-0.00817516 -0.00512965 -0.00242966)
(-0.00113561 -0.00256102 -0.000923625)
(-0.0011091 -0.00251903 -0.000889436)
(0.000423169 -0.00032031 -0.000101019)
(0.000510817 -0.000162654 -0.00163148)
(0.000524413 -0.000695784 -0.00245022)
(0.000701165 -0.000713431 -0.00233858)
(-0.00484937 0.000494264 -0.00163208)
(-0.002967 0.000191976 -0.00104916)
(-0.00429568 0.000324375 -0.00116203)
(-0.00352759 0.000317072 -0.00111736)
(-0.00204166 0.000215178 -0.000972245)
(-0.00226948 0.000274738 -0.000974089)
(-0.00596171 0.000120886 0.00102895)
(-0.00809763 0.000660304 0.00145024)
(-0.00271589 -4.44801e-05 0.000629183)
(-0.00595563 -4.62975e-05 0.00114998)
(-0.00301045 -8.76016e-05 0.000503361)
(-0.003301 3.57669e-05 0.000635657)
(-0.00305006 -1.13761e-05 0.000585292)
(-0.00261863 -0.000240606 0.000540669)
(-0.00239923 -0.000120199 0.000673746)
(-0.00633032 -0.000140014 0.00125372)
(-0.00617021 9.56291e-05 0.00123905)
(-0.00357921 -0.000337887 0.000670654)
(-0.00633556 -0.000427316 0.00120133)
(-0.0037103 -0.000150797 0.000709719)
(-0.00287206 -0.0001253 0.000582701)
(-0.00313339 -0.000110142 0.000607389)
(-0.00455874 -0.000461258 -0.000277293)
(-0.00640603 5.00838e-05 5.36506e-05)
(-0.00505972 -0.000329749 -0.000250173)
(-0.00458387 -0.00021337 -0.000247177)
(-0.00529255 -0.000264658 -0.000264145)
(-0.00627496 0.000122821 0.00015218)
(-0.00480387 3.54379e-05 0.000144396)
(-0.00580661 2.65042e-05 0.000202167)
(-0.00514784 3.9535e-05 -0.000264294)
(-0.00538814 -0.000309247 0.000935289)
(-0.00490818 -0.000221522 0.000978985)
(-0.00548828 -0.000341632 0.000902813)
(-0.00577895 -0.000134396 0.000334932)
(-0.00984774 0.000926842 -0.000509036)
(-0.0136084 0.000283841 -0.000164)
(-0.00526975 -0.000384201 0.00102917)
(-0.00918366 -0.000138451 0.000127646)
(-0.00526463 -0.000117349 0.000938648)
(-0.00668562 -1.98276e-05 0.000355489)
(-0.00542667 0.000223172 0.00105759)
(-0.00746011 -0.00135069 -0.000117965)
(-0.00898497 -0.00104532 -5.64877e-05)
(-0.0108008 -0.00132877 -0.000158999)
(-0.0100315 -0.000100959 0.000333629)
(-0.0108627 -0.000129416 0.000136324)
(-0.00567123 -0.00349691 0.00145568)
(-0.0152484 -0.00117486 0.000274566)
(-0.0175522 0.000598598 0.000865931)
(-0.0196832 0.00139819 -0.00515509)
(-0.00949416 -0.00126734 -0.000247251)
(-0.00945609 -0.00151651 -8.15956e-05)
(-0.00590989 -0.0044472 0.000473915)
(-0.00990022 -0.00488608 -0.00409175)
(-0.0108042 -0.0052986 -0.00448975)
(-0.034483 0.000962739 -0.00146469)
(-0.0172707 -0.000764623 -0.00166129)
(-0.0100812 -0.000660468 -0.00292729)
(-0.00880652 -0.00149022 -4.38389e-05)
(-0.00860498 -0.00192822 0.000365884)
(-0.0075519 -0.00133239 0.000176288)
(-0.00464418 -0.00450303 -0.00232014)
(-0.00466797 -0.00316523 0.00206752)
(-0.00796658 -0.00169766 0.000593116)
(-0.0073485 -0.00184596 0.000608154)
(-0.00704908 -0.00157078 0.000662889)
(-0.0038769 0.000121169 4.32834e-05)
(-0.00392212 0.000723345 -0.000332792)
(-0.00764213 -0.00200515 0.000569009)
(-0.00765146 -0.00179807 0.000433138)
(-0.00777622 -0.00202766 0.000522662)
(-0.00764953 -0.00178891 0.00129915)
(-0.00763207 -0.00204164 0.000881941)
(-0.00828551 -0.00224196 0.000763393)
(-0.00410069 -0.000263199 0.000224262)
(-0.0116943 -0.000571771 0.000430174)
(-0.00371401 -0.000527656 0.000322407)
(-0.00617989 -0.00110659 0.00102053)
(-0.00657104 -0.00116688 0.00119627)
(-0.00744141 -0.0015605 0.000614599)
(-0.00793472 -0.00191216 0.000292907)
(-0.00772295 -0.00166647 0.000376923)
(-0.00886707 -0.00250107 0.0017408)
(-0.00347714 -0.00353486 -0.00115736)
(-0.0107421 -0.00118778 7.49536e-05)
(-0.0104884 -0.00165223 0.000384237)
(-0.0133145 -0.00247974 0.000486153)
(-0.00430784 -0.00111974 0.00104375)
(-0.00280807 -0.0021073 0.000671611)
(-0.00718886 -0.00119563 0.000836893)
(-0.0101407 -0.00601683 0.00341598)
(-0.0105461 -0.000816821 -0.000120024)
(-0.00964674 0.00011116 -0.000725247)
(-0.00866013 0.00117743 -0.00364834)
(-0.00426119 -0.00455048 -0.000793786)
(-0.00440541 -0.00330973 -0.00183065)
(-0.004695 -0.00441655 0.000482902)
(-0.00493623 -0.00131929 0.0010706)
(-0.00940221 -0.00177032 0.00240852)
(-0.00350609 0.000448119 -0.00108575)
(-0.0044028 0.000271222 -0.00197714)
(-0.00815259 -0.00361231 -0.00410866)
(-0.00714425 -0.00194344 0.000782703)
(-0.00785527 -0.00253082 0.00159846)
(-0.00575839 -0.00122937 0.00122985)
(-0.010483 -0.00264208 0.00363949)
(-0.0044717 -0.0044729 0.000813744)
(-0.00404914 -0.00399993 -0.00115975)
(-0.0056966 -0.00646206 -0.000432714)
(-0.00600453 -0.00357321 0.00316817)
(-0.0060795 -0.00670966 0.000587665)
(-0.00391756 -0.000793894 0.000159092)
(-0.00217796 0.000231867 -0.000204322)
(-0.00235268 0.00030982 -0.000498228)
(-0.0020084 0.000285892 -9.1306e-05)
(-0.00814883 -0.00213611 -8.88717e-05)
(-0.00827789 -0.00197644 0.000247269)
(-0.00727314 -0.00625853 -0.000150266)
(-0.00479383 -0.00270375 -0.00103164)
(-0.00455199 -0.00467321 -0.0011164)
(-0.00608743 -0.00691014 -0.000586237)
(-0.00401139 -0.00295106 0.00165777)
(-0.00668725 -0.00748167 0.000830338)
(-0.00515106 0.000315218 0.00105869)
(-0.00732609 0.00100997 0.000721871)
(-0.00193652 0.00048559 0.000401063)
(-0.00837419 0.001197 0.00105951)
(-0.0112136 0.00158495 0.00144966)
(-0.00353944 0.000288602 0.000634215)
(-0.00325439 0.000173411 0.000602712)
(-0.0024244 0.000143989 -0.00260265)
(-0.00868054 -0.000938748 0.0092921)
(-0.00391834 -5.88777e-06 -0.000753741)
(-0.00513475 0.000221083 0.000662107)
(-0.0101166 0.000680714 -0.000110057)
(-0.0074275 0.000621812 0.000226056)
(-0.00295834 0.000165303 0.00148694)
(-0.00304592 -8.017e-05 0.00045973)
(-0.00302617 1.91459e-05 0.000522711)
(-0.00694423 0.000571446 0.000204349)
(-0.00291385 -0.00154012 0.00312506)
(-0.00301297 -6.88763e-05 0.00176829)
(-0.00239525 -0.000164497 0.0012989)
(-0.00253243 -9.85992e-05 0.00134336)
(-0.00196821 -0.000916087 0.0014226)
(-0.00111374 -0.000455043 0.00137111)
(-0.000415339 -0.000460732 0.00100572)
(-0.00185906 -0.000176437 0.000836362)
(-0.00478543 -0.000488033 0.00238299)
(-0.00224251 -0.000199702 0.00101065)
(-0.00270983 -0.000275075 0.00130192)
(-0.000705988 -0.000253428 0.000914655)
(-0.00116071 -0.000121026 0.00163029)
(-0.0020708 -0.000749671 0.00276794)
(-0.00061792 -9.35119e-05 0.000812137)
(-0.00024977 -0.000958222 0.000743506)
(-0.000340677 -0.00116757 0.000793015)
(-0.0075412 -0.00513187 0.00139831)
(0.000238794 -0.00115552 0.000408791)
(0.000392759 -0.0024799 0.000294628)
(0.000281731 -0.00177635 0.000486313)
(-0.000481089 -0.00204292 0.00185167)
(-0.000180957 -0.00685414 0.00462588)
(-0.000329456 -0.000638622 0.000601505)
(-0.000589371 -0.000471081 0.000461901)
(-0.000233288 -8.40738e-06 5.52091e-05)
(-0.000279664 -0.000124645 0.000625673)
(-6.97538e-05 0.0002416 0.000147554)
(-0.00040498 -0.00100018 -0.000670265)
(-0.00040802 -0.000846951 0.00158762)
(-0.000601775 -0.00033523 0.00128695)
(-0.000772152 -0.000210156 0.0037936)
(-0.00196698 -0.000218089 0.00104523)
(-0.00106399 -0.000158999 0.00133161)
(-0.000997943 -5.61153e-05 0.00123406)
(-0.000291989 1.17599e-05 0.000235033)
(-0.000398807 -3.2155e-05 0.000962918)
(-0.000481743 2.47429e-05 0.00204166)
(-0.0026606 -0.00042082 -0.00394927)
(-0.00785042 -0.00038896 -1.15533e-05)
(-0.00789707 -0.0015764 -7.2191e-05)
(-0.0082874 -0.00142765 -0.000131461)
(-0.0125803 0.00231637 0.00134291)
(-0.00398472 0.00202619 -0.000978362)
(-0.00541325 -0.00174657 -0.00160037)
(-0.0044644 -0.00395808 -0.00156662)
(-0.00483429 -0.00153701 -0.00152908)
(-0.000229455 -0.00052834 -0.00388495)
(-1.20835e-05 -0.00103536 -0.00512029)
(-0.00342838 0.00243946 -0.00228278)
(-0.0103903 0.0028468 -0.00501982)
(-0.00379581 0.000985751 -0.00155642)
(-0.0107391 0.00328453 -0.00437378)
(-0.00022858 -0.000269967 -0.00333125)
(2.90858e-05 -0.000303806 -0.00295426)
(-0.00784018 0.00107007 -0.00117071)
(-0.00365336 0.000963674 -0.000509865)
(-0.00496552 0.00105874 -0.00151986)
(-0.00658228 0.00145195 -0.00188374)
(-0.009675 0.00228921 -0.00111991)
(-0.00480182 0.00117833 -0.000671923)
(-0.00696213 0.0015335 -0.00090676)
(-0.00572602 0.00171891 -0.00236579)
(-0.00616497 0.00140448 -0.00197542)
(-0.000345685 -5.40616e-05 5.51998e-05)
(-0.000573088 2.18809e-05 0.000129181)
(-0.000528 -3.67007e-05 5.88748e-05)
(0.000522657 1.97172e-05 -0.000591648)
(0.000390846 -0.000168765 -0.000546669)
(0.000660421 -0.000173211 -0.000415596)
(1.94291e-05 4.07281e-05 -0.000869745)
(-1.48853e-05 0.000309716 -0.000671659)
(-0.000381953 1.95956e-05 -0.000459532)
(-0.000779197 9.75256e-05 -0.000213593)
(-0.000548963 -6.25785e-05 -0.000178268)
(-0.000733145 7.54527e-05 -0.00109467)
(-0.00025228 -9.92862e-05 1.52617e-05)
(0.000146221 -0.00085977 -0.000223136)
(-0.00070174 -7.74969e-06 -0.000186607)
(-0.000480853 0.000203415 -0.00028811)
(-0.000210819 8.79422e-05 -0.000377324)
(-0.00532006 0.000590509 -0.00137136)
(-0.00647315 0.000569958 -0.00196934)
(-0.00460198 0.00135525 -0.00192951)
(-0.00319314 0.000234504 -0.00094086)
(-0.00312284 0.000212858 -0.000844352)
(-0.00353393 0.000273299 -0.000940681)
(-0.00286764 0.000317845 -0.000917532)
(-0.00537868 0.000296001 -0.00121207)
(-0.00148622 0.000607228 -0.00123391)
(-0.00117237 0.000468128 -0.00099628)
(-0.00302213 0.000156191 -0.000992428)
(-0.00624882 0.00050583 -0.00154678)
(-0.0030348 0.000167461 -0.000791223)
(-0.00864095 0.0010585 0.00369184)
(-0.00520613 -4.49903e-05 0.00255804)
(-0.00249625 -0.000172585 0.000924846)
(-0.00268098 -0.000117737 0.000797195)
(-0.00238671 -0.000198061 0.00119257)
(-0.00171555 -0.000146807 0.000872208)
(-0.00233058 -0.000144958 0.00106113)
(-0.0026897 -0.000196907 0.000837669)
(-0.015117 -0.00611905 0.00170518)
(-0.0154143 0.00298523 0.00257142)
(-0.0109953 -0.000577609 -0.000840069)
(-0.00982451 -0.000474984 -0.00153411)
(-0.00816641 -0.00107143 -0.00115637)
(-0.00729562 -0.000251818 -0.000768205)
(-0.00503186 -0.00112211 0.000367438)
(-0.0066635 -0.00166527 0.000209853)
(-0.00546019 -0.000980744 0.00040773)
(-0.00849594 -0.00249558 4.63878e-05)
(-0.00291077 -9.66159e-05 0.000142778)
(-0.00300603 -0.000104166 0.000130095)
(-0.00275734 -0.000153002 0.000189223)
(-0.00353387 -0.000172324 0.000252766)
(-0.00278184 -0.000130516 3.12442e-05)
(-0.00362536 -0.000117822 0.000295379)
(-0.00518376 0.000522495 0.00189388)
(-0.00768311 0.000660691 0.00324708)
(-0.00769073 0.000662906 0.00325659)
(-0.00769085 0.000662924 0.00325664)
(-0.00768758 0.000662115 0.00325316)