/*--------------------------------*- C++ -*----------------------------------*\
  =========                 |
  \\      /  F ield         | OpenFOAM: The Open Source CFD Toolbox
   \\    /   O peration     | Website:  https://openfoam.org
    \\  /    A nd           | Version:  10
     \\/     M anipulation  |
\*---------------------------------------------------------------------------*/
FoamFile
{
    format      ascii;
    class       volScalarField;
    location    "0.1";
    object      k;
}
// * * * * * * * * * * * * * * * * * * * * * * * * * * * * * * * * * * * * * //

dimensions      [0 2 -2 0 0 0 0];

internalField   nonuniform List<scalar> 
115093
(
0.0947978
0.0948066
0.0948114
0.0948243
0.0948232
0.0948767
0.0949423
0.0950374
0.0948073
0.0947998
0.0948083
0.0948125
0.094829
0.094877
0.0949508
0.09506
0.0948021
0.094808
0.0948204
0.0948217
0.0948247
0.0948703
0.094939
0.0949793
0.0948061
0.0948947
0.0948203
0.0948421
0.0948288
0.0948884
0.0949486
0.0949735
0.0949968
0.094912
0.09484
0.0948805
0.0949168
0.0949408
0.0948109
0.0948276
0.0948769
0.0948824
0.0949311
0.0949879
0.0952908
0.0950986
0.094845
0.0949435
0.0948348
0.094837
0.0948791
0.0950385
0.0951551
0.0949168
0.0948204
0.0950044
0.0948397
0.0948263
0.0948764
0.0950521
0.0951447
0.0949612
0.0950239
0.0954595
0.0952765
0.0949437
0.0948859
0.0950619
0.0953067
0.094995
0.0948425
0.0952913
0.0955691
0.0951204
0.0949602
0.0949153
0.094935
0.0949758
0.0948721
0.0950047
0.0948546
0.0949386
0.0951615
0.0951205
0.095524
0.0954949
0.095672
0.0956539
0.0962169
0.0949915
0.0948953
0.0950695
0.0950528
0.0952522
0.0949857
0.0956689
0.0957468
0.0958477
0.0960074
0.0950355
0.0951889
0.0953341
0.095484
0.0949094
0.0949917
0.095052
0.0955992
0.0964181
0.0958894
0.0951388
0.0950779
0.095499
0.0951934
0.094949
0.0949493
0.0950656
0.0956396
0.095662
0.0952191
0.0950608
0.0980016
0.10133
0.0969237
0.0954206
0.0952294
0.095842
0.0962675
0.0954436
0.0949629
0.0950226
0.0953488
0.100384
0.0990956
0.0961519
0.0957687
0.0954783
0.0956375
0.0949871
0.0949396
0.0949818
0.0953884
0.0977159
0.0991655
0.0953796
0.0948126
0.0948393
0.094952
0.0952704
0.0954072
0.095922
0.0965241
0.0964604
0.097621
0.0958405
0.0948709
0.0949703
0.0953376
0.0954435
0.095704
0.0954854
0.0956409
0.095691
0.0962545
0.0965653
0.0949083
0.0951455
0.0961335
0.101822
0.0986567
0.101938
0.0974872
0.0963496
0.096368
0.0969916
0.0952481
0.0961138
0.101798
0.0989298
0.0959166
0.102497
0.101043
0.0966126
0.0963065
0.0963591
0.0954843
0.10029
0.098854
0.0953987
0.0955047
0.0967798
0.099671
0.103348
0.10004
0.096002
0.0965978
0.0982089
0.0958724
0.0949448
0.0952543
0.0951835
0.101997
0.102555
0.0997757
0.095754
0.0962483
0.0977513
0.0967596
0.0952341
0.0953014
0.106755
0.102061
0.0964737
0.0951602
0.0949472
0.0985571
0.0990592
0.0984487
0.0956061
0.103723
0.102783
0.0983377
0.0957652
0.0950968
0.0950777
0.0950935
0.100579
0.0978544
0.0981908
0.101728
0.0971497
0.095971
0.0968101
0.0964945
0.0976456
0.0948156
0.0948661
0.0951913
0.0954049
0.0964401
0.101887
0.0970561
0.105268
0.103188
0.0976402
0.0948683
0.0952328
0.0953942
0.0963204
0.0998582
0.100365
0.0982247
0.0982192
0.101406
0.102509
0.0954129
0.0967757
0.102032
0.0990629
0.0965859
0.0976111
0.0989543
0.0971947
0.0975113
0.100877
0.096532
0.100971
0.0989605
0.0969907
0.102338
0.100328
0.0994536
0.0963038
0.0991197
0.102599
0.101823
0.0988327
0.0967247
0.0971014
0.095511
0.0961569
0.104548
0.112143
0.102617
0.0967774
0.0963426
0.0961893
0.096274
0.095425
0.0953256
0.0960157
0.0983547
0.104243
0.101816
0.0970533
0.096511
0.0984602
0.0969679
0.0955037
0.0979307
0.100998
0.101408
0.100181
0.0988379
0.095456
0.0998547
0.0978424
0.100896
0.0976085
0.0974711
0.106544
0.0995637
0.0956872
0.0950488
0.0949488
0.0992454
0.102579
0.0974927
0.0985689
0.104494
0.101111
0.0952023
0.0956744
0.0957813
0.0966089
0.0948988
0.0951946
0.0954035
0.0965144
0.100389
0.100776
0.0994446
0.0987549
0.101961
0.103023
0.0955097
0.0961288
0.0965099
0.0986409
0.0983632
0.0976959
0.105025
0.110761
0.100326
0.117203
0.104707
0.0969253
0.101696
0.099937
0.0965536
0.0984541
0.104073
0.0981888
0.104028
0.101716
0.113619
0.103191
0.0993667
0.0994122
0.0981689
0.101478
0.100457
0.0985465
0.0982774
0.109735
0.0991012
0.11828
0.104423
0.100227
0.0984883
0.101535
0.100618
0.097957
0.0998614
0.0983661
0.10607
0.102833
0.102036
0.0998123
0.0977347
0.100949
0.0980935
0.0976025
0.0963212
0.0990107
0.105754
0.117999
0.103196
0.0965051
0.0957883
0.0992336
0.0973952
0.0989166
0.0976187
0.097826
0.105033
0.105179
0.100892
0.0982144
0.0954388
0.0952536
0.0927934
0.087842
0.092246
0.0961287
0.102801
0.109188
0.10042
0.0956215
0.0953189
0.0950337
0.0949875
0.0894851
0.100123
0.107313
0.0998083
0.0949777
0.0958445
0.095798
0.0965685
0.0949048
0.0951356
0.0950568
0.0963346
0.100625
0.0993652
0.101902
0.0975221
0.100724
0.102353
0.0954758
0.0958359
0.0963511
0.0993679
0.0983009
0.0996541
0.0990208
0.105764
0.106168
0.120251
0.103268
0.0968876
0.101438
0.0988373
0.0965582
0.102193
0.100361
0.0976961
0.0756309
0.121031
0.137986
0.105556
0.0993801
0.100622
0.098262
0.100444
0.0994554
0.0951159
0.055373
0.0843993
0.106506
0.14399
0.103032
0.10116
0.0978089
0.100568
0.0973729
0.0822468
0.0509616
0.0514149
0.117557
0.104271
0.101434
0.0990052
0.0968224
0.100533
0.0961926
0.084834
0.0430861
0.0575941
0.12488
0.130446
0.101745
0.0964275
0.0957095
0.0980517
0.0987019
0.0953095
0.0837268
0.0733982
0.115261
0.103357
0.100035
0.0981203
0.0953738
0.0952054
0.0725773
0.0721165
0.074664
0.0678998
0.11557
0.114027
0.0997057
0.0956202
0.0952559
0.0950121
0.0949661
0.0388399
0.112884
0.10702
0.100213
0.0950878
0.0963337
0.096243
0.0974467
0.0948467
0.0949694
0.0952885
0.0967513
0.101097
0.0997124
0.0993754
0.106865
0.104767
0.0973359
0.0948743
0.0951573
0.0958554
0.100087
0.0976656
0.0978967
0.10341
0.107666
0.103379
0.102975
0.0998862
0.0953228
0.0962206
0.100451
0.0993486
0.0993758
0.105379
0.0990382
0.108329
0.110515
0.138413
0.105379
0.0960831
0.100445
0.0990765
0.0988399
0.103885
0.0982943
0.0986228
0.104369
0.108103
0.103209
0.099801
0.0988946
0.0995457
0.104578
0.0999891
0.0966793
0.0982212
0.119576
0.124174
0.103597
0.0968494
0.0963027
0.0975814
0.0978491
0.102157
0.0962447
0.0999395
0.114693
0.101915
0.101373
0.0995059
0.0955602
0.0952211
0.0998433
0.0993684
0.100881
0.096034
0.0977783
0.11811
0.109145
0.101939
0.0959239
0.0955883
0.0950556
0.0950336
0.0862592
0.0792018
0.090381
0.100149
0.108135
0.103469
0.101317
0.0977059
0.095234
0.0950565
0.0950236
0.0949666
0.0836709
0.0975694
0.0989385
0.0965448
0.0948208
0.0948722
0.0950495
0.0955033
0.0957382
0.0951776
0.097061
0.0965102
0.0984355
0.0958415
0.0949038
0.095039
0.0954835
0.097406
0.103041
0.0998622
0.100078
0.108727
0.105944
0.0973004
0.0964843
0.0948858
0.0950734
0.0959979
0.102086
0.0981488
0.0966976
0.0994924
0.0993716
0.104608
0.103255
0.0996963
0.0952473
0.0960666
0.101446
0.0981775
0.0973334
0.0956955
0.0982227
0.125686
0.104783
0.0970826
0.0964558
0.0958697
0.100504
0.0980487
0.0959121
0.0965129
0.0957462
0.105274
0.10254
0.100194
0.0955278
0.095209
0.0962265
0.0960488
0.0958167
0.0953136
0.0963401
0.114614
0.102588
0.0962771
0.0959217
0.0951284
0.0950348
0.0976899
0.0970317
0.0969099
0.0970277
0.0958333
0.106607
0.102156
0.0978224
0.0951328
0.095067
0.0950302
0.0949844
0.102404
0.0974373
0.101852
0.0975782
0.105351
0.0993616
0.0964728
0.0954608
0.0950677
0.0949745
0.0949518
0.0949392
0.100722
0.0924955
0.0984825
0.0948059
0.0948086
0.0948183
0.0948839
0.0950412
0.0951789
0.095746
0.0961758
0.096339
0.0948165
0.0948584
0.095026
0.0954232
0.0953898
0.0951208
0.0964506
0.0964161
0.0974441
0.0948747
0.0949623
0.0952012
0.0953548
0.0961194
0.095155
0.0957429
0.0957076
0.0968624
0.0949343
0.0951242
0.0950888
0.0952316
0.0950689
0.0950825
0.0957111
0.0967521
0.0976406
0.0951633
0.0952339
0.0955821
0.0949746
0.0950849
0.095051
0.0957139
0.0960451
0.0959442
0.0950285
0.0954092
0.0955669
0.0953018
0.0952164
0.0957448
0.0959911
0.095067
0.0950943
0.0953017
0.0986829
0.101005
0.0965605
0.095717
0.0953995
0.0953547
0.095073
0.0950264
0.0955757
0.0960273
0.098668
0.0994481
0.0965932
0.0951664
0.0950534
0.0948027
0.0948132
0.0948199
0.0948415
0.0948977
0.094998
0.0950029
0.0950893
0.0951756
0.0948063
0.0948029
0.0948144
0.0948289
0.0948809
0.0949958
0.0952484
0.0955436
0.0956235
0.0948053
0.0948274
0.0949184
0.095076
0.0948954
0.0949898
0.0952663
0.0957851
0.0959725
0.0948114
0.0948356
0.0949025
0.0948766
0.0949188
0.0949551
0.0952155
0.0954972
0.0956101
0.0948553
0.0949728
0.0948268
0.0948461
0.0949134
0.0950787
0.0952175
0.0949801
0.094992
0.0948171
0.0948474
0.0950409
0.0948786
0.0949295
0.0950402
0.0951669
0.0950841
0.095057
0.094943
0.0950398
0.095428
0.0951863
0.0950438
0.0949431
0.094918
0.0948962
0.0949072
0.0948485
0.0948377
0.0951616
0.0955438
0.0948232
0.094852
0.0948784
0.0949296
0.0949505
0.0949966
0.0950586
0.0948119
0.0948253
0.09485
0.0948763
0.0949148
0.094984
0.095099
0.0948315
0.0948584
0.0948553
0.0948915
0.094919
0.0950132
0.0950681
0.0948319
0.0948326
0.0948395
0.0948729
0.0949104
0.094973
0.0949991
0.0948235
0.0948363
0.0948382
0.0949028
0.0949242
0.0949159
0.0949409
0.0950102
0.0948878
0.0948362
0.0948629
0.0948938
0.0949129
0.0949218
0.0956203
0.099194
0.0966624
0.0992283
0.0967023
0.0973134
0.0959038
0.0992145
0.0968043
0.0858164
0.0972311
0.0997688
0.0963074
0.0940073
0.0924319
0.0451737
0.0998709
0.10234
0.0978506
0.0930505
0.0798285
0.0481803
0.0902292
0.0967042
0.0971739
0.0961699
0.0989251
0.0948797
0.039059
0.0971075
0.0971699
0.100606
0.0443306
0.0873198
0.0984548
0.106143
0.095834
0.0952469
0.0653689
0.0644674
0.0505526
0.0882062
0.0967266
0.0868241
0.0857299
0.0665022
0.0391871
0.0494645
0.094988
0.0993245
0.0876945
0.0963803
0.0811283
0.0858588
0.0879485
0.0975916
0.0851313
0.0851765
0.0424085
0.057642
0.0975518
0.0925278
0.0977456
0.0982529
0.0903583
0.0876314
0.0987977
0.0976425
0.0856747
0.0979915
0.0961355
0.088482
0.0885344
0.0857198
0.092483
0.0827658
0.0955823
0.0827533
0.0852553
0.0879589
0.0956305
0.0853002
0.0858136
0.0439285
0.0820174
0.0961297
0.0940835
0.0602701
0.0492579
0.0898059
0.0862345
0.0890237
0.0718742
0.083213
0.0751698
0.0775825
0.0819404
0.0919238
0.0743763
0.0306375
0.0848632
0.0903031
0.0936834
0.0483576
0.0357102
0.0910637
0.0906882
0.0341616
0.0938233
0.0949793
0.0438247
0.0953637
0.0952091
0.0584341
0.0507234
0.0400054
0.0967678
0.0958094
0.0993501
0.0940356
0.054854
0.0429712
0.0541284
0.0986185
0.0904348
0.0969768
0.0844038
0.043339
0.0639252
0.0960747
0.0962812
0.0962153
0.0810114
0.078981
0.097386
0.0906486
0.0735342
0.0991399
0.097192
0.0832217
0.0753989
0.0956292
0.0825961
0.0950466
0.0979767
0.0984924
0.0797167
0.093333
0.0508623
0.0955905
0.0893936
0.0952989
0.0838543
0.0744768
0.0700488
0.0788875
0.073226
0.0754774
0.0751526
0.0777625
0.0317833
0.0826
0.0788003
0.0767321
0.0332121
0.0766976
0.0951347
0.0951194
0.0827824
0.0949347
0.0950536
0.0830807
0.0878663
0.0736272
0.102032
0.0958686
0.0936139
0.086534
0.0919849
0.0957798
0.0955858
0.0935404
0.0886808
0.087293
0.0941172
0.0912886
0.0925801
0.0886304
0.0815174
0.0956239
0.0943672
0.0932781
0.0862761
0.0954119
0.0951169
0.095377
0.0951071
0.0981902
0.0977445
0.098205
0.0960178
0.0949491
0.0952743
0.0950325
0.0983431
0.09668
0.0989281
0.0953086
0.0948209
0.0966635
0.0950511
0.0988487
0.0925995
0.0998733
0.0939783
0.0983343
0.0985412
0.0986353
0.0979754
0.0939301
0.090466
0.0944402
0.101432
0.0993399
0.0986604
0.101879
0.101216
0.0990908
0.065947
0.0978633
0.097506
0.0841851
0.0992335
0.0956669
0.0856467
0.0664413
0.101116
0.0983388
0.0978952
0.0642659
0.0796806
0.0532014
0.0987328
0.0873527
0.0991587
0.0869984
0.0964491
0.0834802
0.0891812
0.042684
0.0530422
0.0842209
0.0972363
0.085382
0.0861691
0.0698184
0.0635605
0.0953505
0.0982552
0.0957082
0.064408
0.0525085
0.0472932
0.0903148
0.0856951
0.0989569
0.096326
0.0405155
0.0501311
0.0622846
0.0945497
0.0621196
0.0846137
0.0966115
0.0587768
0.0813711
0.0668647
0.0532
0.0971954
0.0997491
0.102122
0.0641207
0.0967821
0.10105
0.0939709
0.0846763
0.0690533
0.0869879
0.0421303
0.0835797
0.0751785
0.0896999
0.0733078
0.0894661
0.0871869
0.0901893
0.0750273
0.0892357
0.0493401
0.0528888
0.086922
0.0925039
0.0828019
0.0935677
0.10811
0.0923062
0.0542995
0.0966016
0.0960256
0.0941122
0.0658362
0.0638439
0.0985829
0.0995488
0.0620746
0.101738
0.108904
0.0976649
0.0976732
0.0986572
0.0844348
0.0545293
0.0996347
0.105612
0.0947718
0.0963096
0.0784246
0.0428436
0.0947811
0.0973682
0.0948888
0.103693
0.0977397
0.0802858
0.0823453
0.0444001
0.0999541
0.0960272
0.0980775
0.0856542
0.0626058
0.0721242
0.0431508
0.0882466
0.0873163
0.0776821
0.0411823
0.0544672
0.0900854
0.0988884
0.0928985
0.103076
0.0953597
0.08597
0.0843292
0.0977054
0.100014
0.0959958
0.0889267
0.0760482
0.0737383
0.0793377
0.0855097
0.0511179
0.0732175
0.0826753
0.0572733
0.0690479
0.0933811
0.0971901
0.0838624
0.102138
0.0956595
0.0811675
0.0887987
0.0984342
0.0986382
0.0921997
0.0940193
0.0719557
0.0639841
0.0439885
0.0876821
0.0827622
0.0895657
0.0689229
0.0579113
0.0914997
0.0955174
0.087504
0.100494
0.0948121
0.0690661
0.0434678
0.074457
0.0464407
0.0592092
0.0456509
0.0771327
0.0843119
0.0545751
0.034447
0.0907125
0.0907207
0.0819168
0.0828291
0.0931762
0.0967942
0.0982812
0.0943981
0.0962948
0.0954486
0.0955399
0.095212
0.0970315
0.0986738
0.093656
0.0954258
0.095048
0.0956054
0.0951345
0.0854109
0.0998328
0.094586
0.0898092
0.101589
0.0993249
0.103734
0.0968978
0.0997996
0.0934901
0.0919937
0.0985653
0.0963858
0.0972371
0.0972108
0.0989411
0.0987162
0.0934238
0.0971233
0.095996
0.100874
0.0974252
0.0672794
0.0715192
0.0897311
0.0842999
0.0785784
0.0689735
0.0785622
0.0940139
0.0858687
0.0784042
0.0899055
0.0830319
0.0995429
0.0964501
0.0962004
0.0953675
0.0541428
0.0712306
0.0956564
0.0967665
0.0993789
0.0950763
0.0997212
0.0979288
0.0966266
0.0920896
0.0976971
0.0964054
0.0990264
0.103787
0.0993363
0.0991844
0.0954794
0.0973963
0.0967622
0.102865
0.0996066
0.0944733
0.0700084
0.0853294
0.0895539
0.0716338
0.0912088
0.0907133
0.0709378
0.0813399
0.0927477
0.0750943
0.091908
0.0895172
0.0717222
0.0855611
0.0859667
0.0799836
0.0808776
0.0892743
0.0739429
0.0895807
0.0907598
0.0904145
0.0909483
0.0922279
0.0920123
0.0899611
0.092165
0.0943087
0.0858606
0.091312
0.082388
0.0914089
0.0934651
0.0923859
0.0827798
0.0927581
0.0855681
0.0387251
0.0836004
0.0835782
0.085055
0.0924868
0.0747543
0.0465546
0.0873714
0.091393
0.0716234
0.0847807
0.0919189
0.0444114
0.0923461
0.0850507
0.0720458
0.0881392
0.0883373
0.0809278
0.0446189
0.0858755
0.0872751
0.0621728
0.0845376
0.0882989
0.0809528
0.0479359
0.0939382
0.0826629
0.0601859
0.0879595
0.0848733
0.0438445
0.0469347
0.0859594
0.0860301
0.0579516
0.0535551
0.0975056
0.0849193
0.0667795
0.0871399
0.0602832
0.0447469
0.0533684
0.0871708
0.0862653
0.0671297
0.0868019
0.0633202
0.0435131
0.0837783
0.0746029
0.0710669
0.0519502
0.0715486
0.0767847
0.036341
0.0748091
0.0545193
0.052559
0.0479462
0.0559709
0.0548357
0.0345517
0.0528815
0.0555106
0.0835796
0.0483719
0.0736056
0.0599912
0.0688495
0.061935
0.0842433
0.0604535
0.0869492
0.0905781
0.0771744
0.0867303
0.0712458
0.0844272
0.0593975
0.0970364
0.0855615
0.0525257
0.0851322
0.0743155
0.0685637
0.0604816
0.0884641
0.0866194
0.0755698
0.0862293
0.0781286
0.0695443
0.0487544
0.0847331
0.0744733
0.0751788
0.0682162
0.0753631
0.0510365
0.0548484
0.0730416
0.0533795
0.0695237
0.0709205
0.051746
0.0501813
0.0721664
0.0700874
0.052817
0.0536074
0.061577
0.0502154
0.0688557
0.0555013
0.0782909
0.0848141
0.0931383
0.0401865
0.0933893
0.0421606
0.0768111
0.0780652
0.0376866
0.043852
0.0757113
0.0557626
0.0876611
0.0892624
0.0560395
0.0879133
0.0642341
0.0531423
0.0548857
0.0972729
0.0863818
0.086025
0.0474321
0.0538359
0.0885924
0.0886608
0.0548329
0.0876558
0.0465248
0.0883138
0.0569621
0.0385516
0.0641106
0.047437
0.051275
0.0612574
0.0366763
0.041169
0.0466675
0.0782498
0.0512936
0.0569007
0.0530164
0.0557778
0.0502229
0.0563886
0.0667098
0.0755122
0.055438
0.0786849
0.0572646
0.055129
0.0533839
0.081717
0.0525574
0.0814805
0.0556749
0.0855805
0.0714237
0.0893081
0.070697
0.088394
0.0676991
0.0690793
0.0676739
0.0689276
0.0886535
0.0906462
0.0694105
0.090558
0.0394846
0.0880045
0.0914572
0.0742552
0.0798788
0.087664
0.0708086
0.0702345
0.0740938
0.0714441
0.0918702
0.0823796
0.0904634
0.0752728
0.0878905
0.0899399
0.0899429
0.0931939
0.0889875
0.0780591
0.0665985
0.0897804
0.0937612
0.0691782
0.0540209
0.0886552
0.0746254
0.0478207
0.046818
0.0410163
0.0464729
0.0485931
0.0738575
0.0737653
0.0434476
0.046304
0.0484893
0.0810915
0.0792668
0.046469
0.0690363
0.083104
0.0532524
0.0701373
0.0711194
0.0645134
0.0833664
0.0701
0.0760684
0.0480347
0.0648086
0.0655962
0.0670594
0.0675594
0.0921434
0.078417
0.0528885
0.0938285
0.0515646
0.0846552
0.0912976
0.0947357
0.0818148
0.04829
0.0917586
0.0508754
0.0865686
0.0950325
0.0947405
0.0523824
0.047489
0.0810655
0.0521359
0.0884081
0.0951394
0.0652436
0.0737078
0.0385372
0.0859822
0.0893127
0.0629588
0.0530175
0.0436481
0.0855265
0.0817482
0.079897
0.0546045
0.0357155
0.0684055
0.0565103
0.0806764
0.0661476
0.0865071
0.0971786
0.0830163
0.0801501
0.0778317
0.0854234
0.0808018
0.0736058
0.0514304
0.0811744
0.0510782
0.0789664
0.0786171
0.076625
0.0772577
0.045082
0.0773696
0.0506416
0.0793319
0.0753387
0.0810908
0.0490905
0.042772
0.0802649
0.0500117
0.0764334
0.0759993
0.0862834
0.0865994
0.0977863
0.0902559
0.0903076
0.0826108
0.0970562
0.0817027
0.0818524
0.0966495
0.0861245
0.0851019
0.0739986
0.0799364
0.0584632
0.0516366
0.0864563
0.0972188
0.0855886
0.0563527
0.0808098
0.0986658
0.0515286
0.085475
0.0883706
0.086111
0.0610005
0.081898
0.0883384
0.0534243
0.0866097
0.0503221
0.0986951
0.0735245
0.0999616
0.0567119
0.0853256
0.0858502
0.0532419
0.0890446
0.0753604
0.0884222
0.0557773
0.0838496
0.0855722
0.0984792
0.0871466
0.0603755
0.0806315
0.0999599
0.0675395
0.0859806
0.0533687
0.0991737
0.0732227
0.100366
0.0609311
0.0851518
0.0858518
0.0786978
0.0848182
0.0799618
0.0920036
0.064564
0.0861584
0.07338
0.0597113
0.071456
0.0820421
0.0726408
0.0687588
0.0405745
0.0796899
0.0909
0.06245
0.0713168
0.0583499
0.0625982
0.0613054
0.0814524
0.0703383
0.0923335
0.0894702
0.0818074
0.0791225
0.0883419
0.0459464
0.042963
0.0695574
0.047343
0.0483141
0.0729293
0.0525105
0.0731436
0.0758963
0.0745294
0.06066
0.0496961
0.0691348
0.0563815
0.0669997
0.0717961
0.056411
0.0507489
0.0762278
0.0879379
0.0684809
0.0401592
0.0416402
0.0746072
0.0710767
0.0419149
0.0725881
0.0773706
0.0802623
0.062603
0.0389717
0.05439
0.0384861
0.0723632
0.0810482
0.0732695
0.0602356
0.0665265
0.0754894
0.0647094
0.0724697
0.0757485
0.0821498
0.0943772
0.0887517
0.0729498
0.0361587
0.0675939
0.0436546
0.0827356
0.0822292
0.0692664
0.0728137
0.0870458
0.0840463
0.0717308
0.0672473
0.0715791
0.0676002
0.071626
0.0809902
0.046549
0.095684
0.0846143
0.0916337
0.033662
0.0790803
0.0845326
0.0315373
0.0818033
0.086807
0.0844977
0.0316128
0.084354
0.0718677
0.0858094
0.080113
0.0877579
0.0881753
0.0706617
0.0756719
0.0726036
0.0527912
0.0750496
0.0849113
0.0315243
0.0956677
0.0857972
0.0894953
0.0467669
0.0795093
0.0901583
0.0622629
0.0807225
0.0879266
0.0903026
0.0494625
0.0860796
0.0469942
0.0452881
0.0859843
0.0884273
0.0855729
0.0911827
0.0927876
0.0913051
0.0496122
0.0846639
0.0933062
0.0421586
0.0603983
0.0877919
0.0443865
0.0325084
0.0797352
0.0782837
0.0647954
0.0801917
0.0856809
0.0962975
0.0950911
0.104361
0.0999258
0.099231
0.0954819
0.0954696
0.103721
0.100277
0.096927
0.10112
0.0998401
0.0996017
0.0955098
0.0960729
0.0953302
0.0967615
0.100085
0.0977268
0.0961977
0.0957062
0.0955288
0.0954619
0.100248
0.102273
0.0974179
0.0980762
0.0966435
0.0955438
0.0950146
0.10485
0.0948772
0.100666
0.0968925
0.0957126
0.0961952
0.0953491
0.0989262
0.101796
0.0973685
0.0973227
0.0951997
0.0953429
0.0954576
0.0980847
0.0955317
0.101451
0.0994458
0.0959181
0.101082
0.0978221
0.0960787
0.0985978
0.0995212
0.10191
0.100694
0.107418
0.0981863
0.0972681
0.0973248
0.101062
0.0971654
0.099308
0.100204
0.098898
0.0891421
0.0921261
0.0940075
0.0992477
0.0913046
0.0947274
0.0880227
0.0917501
0.102468
0.098032
0.10106
0.100171
0.0681567
0.0695977
0.0653623
0.102786
0.0993306
0.0972997
0.101204
0.10565
0.0999293
0.0855566
0.100043
0.0980945
0.0960256
0.100523
0.102645
0.0971739
0.0908018
0.0988801
0.103501
0.103247
0.0669648
0.095621
0.104221
0.0970009
0.0992637
0.0992773
0.0951825
0.101432
0.0992734
0.0999957
0.0869112
0.0607441
0.0855571
0.0969346
0.0857727
0.0853949
0.0698763
0.0800216
0.0845625
0.095874
0.0751829
0.0477334
0.0814337
0.0691151
0.0842532
0.0941186
0.114174
0.0943882
0.050054
0.0990196
0.103872
0.0955477
0.0554467
0.0844534
0.09754
0.0881514
0.0860933
0.0662765
0.0577169
0.0536417
0.046527
0.064234
0.0599091
0.0652049
0.0969937
0.096448
0.0974433
0.0911893
0.107452
0.0992878
0.0869369
0.10109
0.0977807
0.101971
0.101342
0.0931519
0.0769952
0.083122
0.0968006
0.0565174
0.0862532
0.0869512
0.091858
0.0926019
0.0807364
0.0432487
0.0455302
0.084954
0.0481686
0.039276
0.0926288
0.0944536
0.0747964
0.092028
0.0595795
0.0995312
0.104928
0.0971014
0.104797
0.0946541
0.100521
0.102091
0.0514793
0.0872739
0.0806525
0.080966
0.0763185
0.073557
0.098161
0.102473
0.0945707
0.106496
0.0932431
0.100699
0.0988994
0.0583858
0.0764876
0.0567057
0.0752195
0.0719206
0.0652572
0.0972766
0.105671
0.102583
0.10253
0.0936945
0.0982858
0.0994469
0.0721807
0.0583283
0.062292
0.0737314
0.0408158
0.0727462
0.0345556
0.0715263
0.0761188
0.0417588
0.0610481
0.069918
0.0679752
0.0960838
0.0959242
0.0935067
0.10123
0.0922129
0.0981682
0.0993786
0.0889437
0.0842809
0.0853005
0.0866943
0.0791068
0.077722
0.095538
0.101427
0.0981716
0.0988472
0.0956706
0.0957274
0.0954018
0.0956515
0.0970082
0.104633
0.0951056
0.0958363
0.0956545
0.0957233
0.0949481
0.0982526
0.0919884
0.0950914
0.101069
0.0968049
0.0992109
0.0964317
0.0725733
0.0762732
0.040593
0.0939056
0.0876766
0.050826
0.0744038
0.0777127
0.0412841
0.0934592
0.0680165
0.0891499
0.077336
0.088377
0.0911176
0.0842014
0.0947506
0.0976384
0.0990508
0.0967801
0.0984957
0.0839071
0.0961507
0.0976683
0.0931224
0.0975754
0.0883656
0.0873879
0.0861935
0.0835833
0.0913736
0.0834616
0.0902392
0.0924536
0.0860568
0.0917599
0.0658087
0.0474146
0.0671583
0.0448386
0.0876876
0.101042
0.0923626
0.091287
0.0973086
0.0943458
0.0870426
0.0804208
0.097527
0.0827102
0.0935284
0.0893468
0.0925998
0.0850906
0.0702827
0.0494576
0.0691887
0.0541369
0.0729642
0.070453
0.0601314
0.0736561
0.0659206
0.0543966
0.0792818
0.0931089
0.0872187
0.0740959
0.0946207
0.0868847
0.08981
0.0967892
0.0932593
0.0942053
0.0965269
0.0908016
0.0940316
0.0408652
0.0429694
0.0420958
0.04051
0.0740739
0.078758
0.0768592
0.0770319
0.0918073
0.0990172
0.0940232
0.090959
0.0950933
0.0913604
0.0798891
0.0447959
0.0443679
0.0481106
0.0415208
0.0678484
0.0697005
0.066486
0.0742893
0.0739348
0.0775355
0.0764855
0.068804
0.0675478
0.0787505
0.0438006
0.0403126
0.0688429
0.0696735
0.0370917
0.0780878
0.0750839
0.0580976
0.0526679
0.0748377
0.0786036
0.0857012
0.0991238
0.0798894
0.0832369
0.0806453
0.0943588
0.0651191
0.0710635
0.0704816
0.0653825
0.0479702
0.0765546
0.0757006
0.0659657
0.0780321
0.0773059
0.0669301
0.0579834
0.0841585
0.0764106
0.0610791
0.0537687
0.0863475
0.0876014
0.075383
0.0870816
0.0732691
0.0650962
0.0457058
0.0882837
0.0730266
0.0692801
0.0785144
0.0599608
0.0489275
0.0556085
0.0733967
0.076712
0.0508107
0.0774815
0.0652233
0.0584968
0.0403204
0.0373276
0.0303868
0.079797
0.0877139
0.0872322
0.0501734
0.0905118
0.0677972
0.0673623
0.0829034
0.081239
0.0949306
0.0784153
0.0946782
0.0701033
0.0828155
0.081951
0.0885647
0.0928974
0.0652736
0.0953002
0.0660345
0.0827074
0.0444645
0.0625047
0.0532081
0.065417
0.0614909
0.0509474
0.0447156
0.0465739
0.0442946
0.04394
0.0950994
0.0989958
0.0836145
0.0867799
0.0910558
0.0967885
0.0890853
0.0828142
0.0862037
0.0959954
0.0853128
0.0879898
0.0946066
0.0884801
0.0951828
0.0883013
0.098554
0.0874444
0.0919096
0.0979995
0.0841844
0.0954464
0.0882083
0.0962559
0.0851088
0.0981814
0.080889
0.0969766
0.0857352
0.0851805
0.0806445
0.094161
0.044725
0.082467
0.0856684
0.0869082
0.0866799
0.0534142
0.0435054
0.0804778
0.0832725
0.0874234
0.0453202
0.0867118
0.0520295
0.0806772
0.0577439
0.0314438
0.0326508
0.0378996
0.0332259
0.0689303
0.0860674
0.086366
0.0842812
0.0877469
0.0689748
0.0781225
0.0683446
0.0962946
0.080496
0.0608419
0.082403
0.0484915
0.0808662
0.0583401
0.0797625
0.0405304
0.0896578
0.0620262
0.0845286
0.0701125
0.0338681
0.0771391
0.067642
0.0338138
0.0504219
0.0409144
0.0705197
0.0906634
0.0741793
0.0425593
0.0454603
0.0891429
0.0688582
0.0456422
0.0542418
0.0555545
0.0653961
0.0805259
0.0655361
0.0591186
0.0629324
0.0541723
0.0384904
0.0537276
0.0887728
0.0794011
0.0550685
0.0860205
0.0767183
0.0529856
0.0915331
0.0797638
0.0544361
0.0817056
0.078873
0.0604254
0.0619627
0.0313236
0.0619351
0.0683765
0.0469026
0.0392888
0.0554204
0.0465162
0.058521
0.0439249
0.0656875
0.0502655
0.09087
0.0779394
0.0838761
0.0789637
0.0844751
0.0520508
0.0262788
0.0381693
0.0601302
0.0651852
0.0205415
0.0795221
0.0469295
0.0846109
0.0851131
0.0839162
0.0806509
0.079426
0.0926331
0.0830476
0.0806222
0.0927075
0.0722347
0.0649353
0.0470075
0.0703122
0.0668365
0.0786191
0.0585669
0.0746176
0.0660435
0.0470206
0.0727359
0.0712402
0.0751093
0.04975
0.0887209
0.0967648
0.10232
0.0954259
0.0839574
0.0915587
0.101148
0.0956671
0.0905459
0.0988356
0.096076
0.0881297
0.0939736
0.0963529
0.0891158
0.0835364
0.0946768
0.10031
0.088932
0.0887016
0.100641
0.0775463
0.0723052
0.052791
0.0721016
0.0688542
0.0641741
0.0602919
0.055989
0.0381256
0.0406675
0.0663431
0.0482425
0.0563266
0.0759367
0.0925726
0.0819486
0.0960071
0.0866489
0.0806859
0.0855254
0.0795375
0.0851551
0.0908898
0.0829725
0.0859563
0.0739056
0.0887574
0.0663943
0.0774604
0.0841044
0.0855718
0.0731832
0.0797423
0.0879646
0.0614636
0.0543056
0.0491162
0.0792527
0.0573472
0.0653037
0.083784
0.0896941
0.0969017
0.095973
0.0881963
0.0887817
0.0916527
0.0859654
0.0858357
0.0807618
0.0876266
0.0811734
0.0756758
0.0874011
0.0841898
0.0926117
0.0882423
0.0780259
0.0936176
0.0876384
0.0672209
0.0759863
0.0863036
0.0768125
0.0792127
0.0775597
0.0820104
0.0991851
0.0860391
0.0883462
0.0769866
0.0813899
0.0756468
0.0806068
0.0872742
0.0879861
0.0759938
0.0799274
0.0871551
0.0562389
0.0431494
0.0694962
0.0734613
0.0714177
0.0564225
0.0760685
0.0413213
0.0363358
0.0549355
0.0529833
0.070784
0.050133
0.0473913
0.0754851
0.0635599
0.0721023
0.0555629
0.0585394
0.069478
0.0550324
0.0728115
0.0437873
0.0667493
0.0757353
0.0779453
0.0650838
0.0730093
0.055534
0.0565685
0.0772505
0.0715522
0.070139
0.0913338
0.0495356
0.0633544
0.0758922
0.040015
0.0455381
0.0849355
0.0815927
0.0812967
0.085298
0.0703462
0.0673803
0.0240022
0.0629736
0.0611037
0.0634296
0.0234033
0.0364532
0.0449654
0.0717578
0.0610901
0.0747023
0.0481469
0.0717401
0.0512662
0.0959908
0.0870271
0.094371
0.0884402
0.0949083
0.0696217
0.0717165
0.0394349
0.0893437
0.0878502
0.0705005
0.0402144
0.081454
0.0940443
0.100667
0.099884
0.0806139
0.0897398
0.0910225
0.0828583
0.0935514
0.0967327
0.0918911
0.090437
0.0856541
0.0925583
0.0839185
0.101521
0.0984666
0.0982591
0.083561
0.0899144
0.0908996
0.090878
0.0819789
0.0865947
0.0953725
0.0825076
0.0879669
0.0865884
0.0852159
0.0720512
0.0702667
0.0889735
0.0949664
0.0957575
0.0893118
0.0827263
0.0752774
0.0755867
0.0807141
0.0730456
0.0875119
0.0882674
0.0965
0.044976
0.096538
0.080545
0.0524286
0.0832398
0.049619
0.0977185
0.041775
0.0961971
0.0824763
0.0786549
0.0814159
0.0598812
0.0875996
0.0814012
0.0683053
0.0849507
0.0959543
0.0922322
0.0892601
0.0877068
0.0854406
0.0698397
0.0655437
0.0828759
0.0815735
0.0908603
0.0801116
0.0433973
0.0635704
0.0805517
0.0882557
0.0879461
0.0803146
0.0909362
0.0752914
0.0785189
0.0872396
0.0987911
0.0972219
0.0874973
0.0540683
0.0553379
0.0741536
0.0583504
0.0774655
0.0825548
0.0838539
0.0755546
0.0747091
0.0477928
0.0509304
0.0709206
0.0747737
0.0675748
0.0816267
0.05102
0.0868887
0.0769996
0.0886469
0.0806096
0.0724023
0.0968274
0.0644483
0.0618436
0.0801544
0.0818098
0.0810256
0.0808463
0.0814139
0.0489294
0.0381754
0.0842397
0.0493702
0.0763189
0.0664484
0.0853049
0.0480918
0.0861201
0.0824435
0.0782914
0.0804244
0.0683966
0.0509818
0.0376789
0.0471771
0.0783774
0.0766148
0.076297
0.0688126
0.0860074
0.062749
0.0459739
0.07381
0.0814066
0.0852952
0.0824622
0.096715
0.0861663
0.0753866
0.0740094
0.0866833
0.0841999
0.0796219
0.052712
0.0503829
0.0583554
0.0711266
0.06251
0.0648283
0.052049
0.0579448
0.0689749
0.0827745
0.0817045
0.0703016
0.0660959
0.0481689
0.0681128
0.0656608
0.0809508
0.080097
0.066668
0.0800909
0.087743
0.0602732
0.0587879
0.0800632
0.086663
0.0570244
0.0761546
0.0612892
0.0701468
0.0591351
0.0743956
0.0710635
0.0573543
0.0795863
0.0636659
0.0853207
0.0565175
0.0874298
0.076833
0.0587778
0.0731518
0.0478992
0.0669686
0.0724596
0.0500608
0.0681363
0.0855234
0.0603721
0.088873
0.0865449
0.0563233
0.0696764
0.0771433
0.0629546
0.0740567
0.0757321
0.0576927
0.0749063
0.0887698
0.0932075
0.075139
0.0678582
0.089449
0.0925751
0.0675343
0.0783534
0.0497078
0.0751995
0.07687
0.0564054
0.0750272
0.072131
0.0749917
0.0706865
0.0740895
0.0723637
0.068981
0.0700607
0.0685455
0.0718241
0.0736758
0.0721992
0.0658947
0.0761896
0.0745761
0.0795434
0.072996
0.051281
0.0787839
0.0797745
0.0790418
0.0793764
0.081912
0.0827682
0.0815616
0.0791455
0.0546537
0.0761246
0.0482413
0.0796429
0.0810526
0.0797012
0.0821909
0.0800383
0.0802939
0.0612547
0.0801956
0.0814721
0.0822826
0.0818586
0.0885038
0.0883474
0.0566242
0.0606186
0.0338103
0.0484203
0.0332614
0.0457548
0.0464474
0.0604831
0.0481497
0.0465146
0.0363889
0.0330389
0.0797136
0.0929853
0.082339
0.0900804
0.0773875
0.0879093
0.0888803
0.0779424
0.0727484
0.0890877
0.0881332
0.0860135
0.0900542
0.0889502
0.0567038
0.0912032
0.0928133
0.0807136
0.081103
0.0508245
0.0775812
0.0486511
0.0797086
0.0727143
0.0871802
0.0891498
0.0851306
0.0933856
0.0467884
0.0735784
0.0795661
0.0675421
0.0800091
0.0817898
0.0826367
0.0755915
0.0727203
0.0755739
0.0804168
0.0479207
0.0674842
0.0768898