/*--------------------------------*- C++ -*----------------------------------*\
  =========                 |
  \\      /  F ield         | OpenFOAM: The Open Source CFD Toolbox
   \\    /   O peration     | Website:  https://openfoam.org
    \\  /    A nd           | Version:  10
     \\/     M anipulation  |
\*---------------------------------------------------------------------------*/
FoamFile
{
    format      ascii;
    class       volScalarField;
    location    "0.1";
    object      k_0;
}
// * * * * * * * * * * * * * * * * * * * * * * * * * * * * * * * * * * * * * //

dimensions      [0 2 -2 0 0 0 0];

internalField   nonuniform List<scalar> 
115093
(
0.0948471
0.0948558
0.0948605
0.0948733
0.0948721
0.094925
0.0949895
0.0950839
0.0948566
0.0948491
0.0948575
0.0948616
0.0948778
0.0949253
0.0949981
0.0951064
0.0948514
0.0948572
0.0948695
0.0948707
0.0948737
0.0949187
0.0949865
0.0950266
0.0948553
0.0949437
0.0948695
0.0948909
0.0948777
0.0949365
0.0949958
0.0950209
0.0950444
0.0949602
0.0948887
0.0949287
0.0949648
0.0949887
0.0948603
0.0948769
0.0949261
0.09493
0.0949783
0.0950341
0.0953354
0.0951449
0.0948939
0.0949917
0.0948838
0.0948856
0.0949269
0.0950841
0.0951994
0.0949647
0.0948693
0.0950523
0.0948886
0.094875
0.0949244
0.0950976
0.0951893
0.0950092
0.0950739
0.0955064
0.0953233
0.0949917
0.0949336
0.0951071
0.0953513
0.0950424
0.0948914
0.0953389
0.0956144
0.0951678
0.0950077
0.0949636
0.0949825
0.0950233
0.094921
0.0950536
0.0949036
0.0949873
0.095209
0.0951676
0.0955713
0.0955381
0.0957122
0.0956922
0.0962477
0.0950394
0.0949438
0.095117
0.0951014
0.0953016
0.0950323
0.0957111
0.0957864
0.0958852
0.0960423
0.0950826
0.095236
0.0953804
0.09553
0.0949571
0.0950384
0.0950981
0.095644
0.0964549
0.0959288
0.0951859
0.0951284
0.0955467
0.0952411
0.094997
0.0949964
0.0951116
0.0956838
0.0957075
0.0952654
0.0951085
0.0980764
0.101378
0.0969655
0.0954661
0.0952739
0.0958815
0.0963026
0.0954889
0.0950116
0.0950708
0.0953962
0.100451
0.0991419
0.096195
0.095815
0.0955211
0.0956799
0.0950351
0.0949879
0.0950302
0.095439
0.0977646
0.0992087
0.0954279
0.0948618
0.0948883
0.095
0.0953166
0.0954528
0.0959621
0.0965581
0.0964904
0.0976419
0.0958821
0.0949198
0.0950185
0.0953841
0.0954897
0.0957507
0.0955317
0.0956805
0.0957308
0.0962915
0.0966002
0.0949566
0.0951929
0.0961799
0.101869
0.0987328
0.101974
0.0975191
0.0963846
0.0964068
0.0970216
0.0952954
0.0961586
0.101846
0.0989848
0.0959592
0.102558
0.101088
0.0966506
0.0963425
0.0963953
0.0955317
0.100339
0.0989155
0.0954499
0.0955457
0.0968114
0.0997386
0.103372
0.10005
0.0960438
0.0966607
0.0982697
0.0959217
0.0949948
0.0952994
0.0952296
0.102077
0.102571
0.0997911
0.0957998
0.0963069
0.0978033
0.0968132
0.0952841
0.0953463
0.106811
0.102106
0.0965189
0.0952075
0.0949957
0.0986042
0.0991236
0.0985033
0.0956576
0.103813
0.102821
0.0983633
0.0958091
0.0951451
0.0951259
0.0951446
0.100617
0.097907
0.0982329
0.101771
0.0971886
0.0960104
0.0968405
0.0965241
0.0976653
0.0948648
0.0949149
0.0952392
0.0954517
0.0964844
0.101932
0.0971174
0.105307
0.103235
0.0976712
0.0949171
0.09528
0.0954412
0.0963666
0.099908
0.100414
0.0982593
0.0982354
0.101451
0.102532
0.0954598
0.0968178
0.10208
0.0991203
0.0966258
0.097659
0.0989927
0.0972323
0.0975506
0.100903
0.096576
0.101018
0.0990221
0.0970473
0.102371
0.100379
0.0994926
0.0963392
0.0991922
0.102619
0.10187
0.0988923
0.0967789
0.097141
0.0955575
0.0961935
0.104629
0.112192
0.102659
0.0968087
0.09639
0.096247
0.0963168
0.0954753
0.0953744
0.0960581
0.098418
0.104253
0.101822
0.0970877
0.096565
0.0985235
0.0970112
0.0955546
0.0979735
0.101029
0.101486
0.100203
0.0988583
0.0955035
0.0999982
0.0979204
0.100996
0.0976624
0.0975115
0.106599
0.0996057
0.0957333
0.0950962
0.0949973
0.0993166
0.102667
0.0975903
0.0986169
0.104585
0.101145
0.0952503
0.0957108
0.0958196
0.0966446
0.0949475
0.095242
0.0954492
0.0965562
0.100432
0.100819
0.0994665
0.0987668
0.101998
0.10305
0.0955555
0.0961721
0.0965516
0.0986803
0.0984271
0.0977437
0.105108
0.110896
0.100349
0.117271
0.104729
0.0969671
0.101737
0.100003
0.0965974
0.0984935
0.104153
0.0983088
0.104116
0.10177
0.113644
0.103205
0.0994158
0.0994647
0.0982228
0.101556
0.100573
0.098632
0.0983681
0.109889
0.0991358
0.11833
0.104447
0.100288
0.0985469
0.101613
0.100765
0.098115
0.100025
0.0984594
0.106082
0.102868
0.10206
0.0998453
0.097793
0.101023
0.0982231
0.0977311
0.096504
0.0992287
0.105817
0.118049
0.103228
0.0965388
0.0958327
0.0993295
0.0975176
0.0990841
0.0977667
0.0979853
0.105197
0.105297
0.100918
0.098237
0.0954846
0.0953012
0.0929757
0.0880237
0.0924511
0.0963362
0.102854
0.109205
0.100456
0.0956627
0.0953632
0.0950822
0.0950367
0.0897372
0.100268
0.10741
0.099844
0.0950257
0.0958805
0.0958367
0.096605
0.0949536
0.0951831
0.095104
0.0963741
0.10066
0.0994071
0.101915
0.0975495
0.100778
0.102382
0.0955218
0.0958804
0.0963923
0.0993972
0.0983565
0.0997182
0.0991139
0.105855
0.106204
0.1203
0.103293
0.09693
0.10148
0.0988945
0.0966082
0.102218
0.100449
0.0978659
0.0759117
0.12132
0.137848
0.105555
0.0994296
0.100662
0.0983031
0.100525
0.0995614
0.0952664
0.0556619
0.0848324
0.106524
0.143948
0.10306
0.101214
0.0978646
0.100646
0.0974853
0.0824987
0.0511959
0.051945
0.117829
0.10439
0.101459
0.0990419
0.0968742
0.100607
0.0963157
0.085072
0.0434074
0.0578519
0.125223
0.130413
0.101778
0.0964618
0.0957544
0.0981298
0.0987921
0.0954073
0.0839844
0.0737156
0.115559
0.10348
0.100069
0.0981438
0.0954207
0.0952535
0.0728606
0.0724184
0.0748511
0.0682577
0.115855
0.114067
0.0997471
0.0956627
0.0953012
0.0950607
0.0950153
0.039107
0.113085
0.10713
0.10025
0.0951334
0.0963656
0.0962739
0.0974664
0.0948957
0.0950177
0.0953349
0.0967906
0.101135
0.099745
0.0993904
0.10689
0.104812
0.0973631
0.094923
0.0952047
0.0959002
0.100124
0.0977208
0.0979531
0.103389
0.107644
0.103455
0.103007
0.0999214
0.09537
0.0962642
0.100501
0.0993946
0.0994166
0.105474
0.0991816
0.108427
0.110509
0.13842
0.10541
0.0961285
0.100493
0.0991364
0.0988994
0.103981
0.0984054
0.0987466
0.104421
0.108197
0.103238
0.0998371
0.0989466
0.099598
0.104639
0.100086
0.0967887
0.0983425
0.119901
0.124158
0.103634
0.0968758
0.0963457
0.0976308
0.0979024
0.102257
0.0963405
0.10006
0.114968
0.102021
0.101414
0.0995167
0.0956049
0.0952686
0.099923
0.0994621
0.101001
0.0961472
0.0978743
0.118412
0.109191
0.101981
0.095963
0.0956297
0.0951038
0.0950825
0.0865433
0.0794713
0.0906634
0.100236
0.10835
0.103583
0.101362
0.0977311
0.095281
0.0951043
0.0950722
0.095016
0.0839444
0.0976233
0.0989745
0.0965822
0.09487
0.094921
0.0950976
0.095549
0.0957804
0.0952248
0.0970887
0.0965397
0.0984489
0.0958804
0.0949524
0.0950868
0.0955284
0.097442
0.10308
0.0998923
0.10008
0.108749
0.105986
0.097326
0.0965266
0.0949346
0.0951216
0.0960443
0.10213
0.0981982
0.0967356
0.0995003
0.0993601
0.104666
0.103293
0.0997309
0.0952941
0.0961114
0.101495
0.0982198
0.0973653
0.0957432
0.0982456
0.125654
0.104822
0.097109
0.0964982
0.0959173
0.100553
0.0981076
0.0959621
0.0965477
0.0957894
0.105353
0.102578
0.100199
0.0955702
0.0952562
0.0962739
0.0960991
0.0958688
0.0953649
0.0963795
0.114629
0.102634
0.0963121
0.0959583
0.0951756
0.0950835
0.097745
0.09709
0.0969628
0.097094
0.0958858
0.106698
0.102201
0.0978458
0.0951793
0.0951137
0.0950783
0.0950337
0.102514
0.0975522
0.101995
0.0976286
0.105388
0.0994033
0.0965105
0.0955036
0.0951155
0.0950226
0.0950008
0.0949886
0.100874
0.0927012
0.0985902
0.0948551
0.0948578
0.0948674
0.0949329
0.0950899
0.0952201
0.09578
0.0962075
0.0963744
0.0948656
0.0949071
0.0950737
0.0954683
0.0954325
0.0951658
0.0964808
0.0964444
0.0974644
0.0949235
0.0950106
0.0952478
0.0953989
0.0961572
0.0951998
0.09578
0.095748
0.0968978
0.0949827
0.0951714
0.0951364
0.0952809
0.0951138
0.0951281
0.0957483
0.09678
0.0976595
0.0952104
0.095281
0.0956265
0.0950217
0.0951299
0.0950972
0.0957574
0.0960807
0.0959816
0.095078
0.0954573
0.0956117
0.0953472
0.0952604
0.0957847
0.0960258
0.0951138
0.0951405
0.0953536
0.0987377
0.101054
0.0966052
0.0957638
0.0954432
0.0953986
0.0951205
0.0950742
0.0956254
0.096067
0.0987423
0.0994962
0.0966326
0.0952141
0.0951007
0.0948519
0.0948623
0.0948689
0.0948902
0.0949454
0.0950446
0.0950496
0.0951358
0.0952199
0.0948555
0.0948521
0.0948634
0.0948779
0.0949298
0.095041
0.0952904
0.0955834
0.0956651
0.0948546
0.0948764
0.0949665
0.0951227
0.0949429
0.0950354
0.095308
0.0958216
0.0960074
0.0948606
0.0948847
0.0949514
0.0949242
0.0949659
0.0950015
0.0952579
0.0955374
0.095652
0.094904
0.0950208
0.0948756
0.0948944
0.0949606
0.0951233
0.0952607
0.095028
0.095039
0.0948659
0.0948958
0.095088
0.0949268
0.0949763
0.0950856
0.0952128
0.0951313
0.0951044
0.0949918
0.0950883
0.0954736
0.0952332
0.0950902
0.0949913
0.0949658
0.0949448
0.0949557
0.0948975
0.0948867
0.0952112
0.0955895
0.0948722
0.0949005
0.0949264
0.094977
0.0949978
0.0950438
0.0951048
0.094861
0.094874
0.0948985
0.0949245
0.0949626
0.0950312
0.0951449
0.0948802
0.0949068
0.0949037
0.0949396
0.0949669
0.0950603
0.0951144
0.0948807
0.0948814
0.0948882
0.0949212
0.0949581
0.0950204
0.0950468
0.0948723
0.094885
0.0948869
0.0949508
0.0949719
0.0949641
0.0949891
0.0950574
0.0949361
0.0948849
0.0949113
0.0949421
0.0949613
0.0949704
0.0956841
0.0992682
0.0967406
0.0993244
0.0968507
0.0974548
0.0960718
0.0993471
0.0969228
0.0860822
0.0973588
0.0998438
0.0964266
0.0941978
0.0926297
0.0454318
0.100022
0.10244
0.0979898
0.0931945
0.0800553
0.048464
0.0904143
0.096815
0.0972876
0.0962935
0.0990202
0.0949929
0.0392745
0.0972502
0.0972609
0.100738
0.0445969
0.0875332
0.0986098
0.106319
0.0960005
0.0954149
0.0656977
0.0647667
0.0507493
0.0884929
0.0969085
0.0871413
0.0859817
0.0667963
0.0394117
0.0496408
0.0952002
0.0994785
0.0879897
0.0964973
0.0813405
0.0860527
0.0882398
0.0977538
0.085443
0.0853544
0.0426799
0.0579931
0.0977016
0.0926969
0.0978369
0.0983893
0.090561
0.0878831
0.098915
0.0977581
0.0859392
0.0980856
0.0962551
0.0887319
0.0887441
0.0859854
0.0926386
0.0830503
0.0956746
0.082975
0.0854632
0.0882464
0.0958128
0.0855835
0.0860327
0.044232
0.0822794
0.0963333
0.0942155
0.0605892
0.049588
0.0900481
0.0864707
0.0893102
0.0721226
0.0834756
0.0754594
0.0776927
0.0821929
0.0921527
0.0745498
0.0308827
0.0851557
0.0905264
0.0938288
0.0486894
0.0359914
0.0912718
0.090937
0.0344469
0.0939478
0.0951204
0.0441696
0.0954778
0.0952832
0.0587314
0.0509569
0.0403024
0.0968706
0.0959111
0.0994407
0.0941621
0.0550637
0.0432643
0.0543292
0.098788
0.0906817
0.0971598
0.0846575
0.0436116
0.0642569
0.0961583
0.0964813
0.0963692
0.0812448
0.0791624
0.09753
0.0909704
0.0737776
0.0992229
0.0973474
0.0834849
0.0756014
0.0957631
0.0829186
0.0952759
0.0980752
0.0986107
0.0799664
0.0935768
0.05117
0.0956993
0.0896871
0.0954476
0.0840813
0.0746851
0.0703244
0.0791309
0.0734997
0.0756403
0.0754264
0.0778804
0.0319833
0.0828571
0.0790119
0.0770185
0.0334417
0.0770111
0.0952581
0.0951869
0.0830519
0.0950342
0.0951297
0.0833294
0.0881318
0.0738445
0.10211
0.0960228
0.0938138
0.0867731
0.0922502
0.0958804
0.0957138
0.0937111
0.0889463
0.0875512
0.0942956
0.091509
0.0928021
0.0888866
0.0818136
0.0957925
0.0944871
0.0934645
0.0865256
0.0955777
0.0951807
0.0954228
0.0951741
0.0982984
0.0978951
0.0983091
0.0961957
0.0950148
0.0953245
0.0951001
0.0984431
0.0968351
0.0990226
0.0955034
0.0948903
0.0967159
0.095121
0.0989349
0.0928138
0.0999713
0.0940963
0.0984386
0.0986409
0.0987292
0.0981337
0.0940913
0.0907439
0.0945771
0.101633
0.0994341
0.0988056
0.101983
0.101374
0.0992554
0.0662521
0.0979973
0.0976499
0.0844456
0.0993478
0.0958596
0.0858749
0.0667124
0.101298
0.0984348
0.0980173
0.0646063
0.0805131
0.0535191
0.0988878
0.0876486
0.0993089
0.0872967
0.0965477
0.0837438
0.0893665
0.0429363
0.0533337
0.0844602
0.0974191
0.0856472
0.0863916
0.0701112
0.063848
0.0955262
0.0984672
0.0958222
0.0647324
0.052773
0.0474936
0.0905378
0.0860222
0.0991526
0.096464
0.0408138
0.0503353
0.0627053
0.0946659
0.0624485
0.0848455
0.0967725
0.0590794
0.0815863
0.0673237
0.0533955
0.097331
0.0998431
0.102268
0.0644256
0.0968839
0.101157
0.0941378
0.0848873
0.0693235
0.0872132
0.0423214
0.0837826
0.0754666
0.0899306
0.0735649
0.0896693
0.0874423
0.0904379
0.0752666
0.0894082
0.0496408
0.0530633
0.0871455
0.0927278
0.0830276
0.0936861
0.108275
0.0924285
0.0546491
0.0967126
0.0961172
0.0942319
0.0660784
0.0641558
0.0987676
0.0997083
0.0623789
0.101828
0.109089
0.0977655
0.0977699
0.0988218
0.0846688
0.0547319
0.099724
0.105778
0.094882
0.0964578
0.0791118
0.043223
0.0950324
0.097456
0.0950498
0.103773
0.0978893
0.0805733
0.0825536
0.0446606
0.100064
0.0962004
0.0981763
0.0859347
0.0629523
0.0724343
0.043457
0.0884282
0.0875802
0.077947
0.0415317
0.0547121
0.0903124
0.0989867
0.093037
0.103184
0.0955051
0.0862276
0.084542
0.0977969
0.100118
0.0961102
0.0892348
0.0762652
0.0739063
0.0795357
0.0857211
0.0514201
0.0733724
0.0829314
0.0575055
0.0693733
0.093506
0.0973287
0.084105
0.102264
0.095801
0.081409
0.0889685
0.0985285
0.0987846
0.092473
0.0942297
0.072118
0.0643211
0.0442762
0.0878823
0.0829853
0.0898151
0.0692522
0.0582381
0.0917088
0.0956746
0.0877721
0.100633
0.094949
0.069359
0.0437554
0.0746449
0.0465687
0.0594481
0.0459117
0.0773586
0.0846137
0.0549078
0.0346677
0.0909376
0.0908653
0.0821363
0.083117
0.0933091
0.0969297
0.098389
0.0945653
0.0963314
0.0955102
0.0955822
0.0952784
0.0971489
0.0987713
0.0938343
0.0954759
0.0951138
0.0956543
0.095202
0.0856636
0.100027
0.0948658
0.0900192
0.10169
0.0994707
0.103834
0.0970468
0.0999466
0.0937571
0.0922732
0.0986621
0.0965405
0.0973494
0.0973191
0.0990629
0.0988322
0.0935868
0.0971717
0.0960561
0.100953
0.0975015
0.0675583
0.0717567
0.0899283
0.084524
0.0789211
0.069235
0.0788869
0.0942155
0.0861401
0.0787433
0.0901479
0.0833218
0.0996968
0.0965856
0.0963848
0.0955095
0.0544735
0.0715327
0.0957902
0.0968664
0.0994801
0.0952556
0.0998201
0.0980626
0.0967294
0.0922528
0.0977534
0.0964942
0.0991282
0.103977
0.0994388
0.0992779
0.0956334
0.0974576
0.0968379
0.103021
0.0997371
0.0945884
0.0702662
0.0855441
0.0897578
0.0718876
0.0914636
0.0909599
0.0712317
0.0815732
0.0929825
0.0753872
0.0921456
0.0897589
0.0719377
0.085786
0.0861614
0.0803542
0.0811197
0.0895269
0.0742345
0.0897881
0.0909536
0.0906075
0.091135
0.092422
0.0922337
0.0901745
0.0923789
0.0945233
0.086023
0.0915508
0.0826084
0.0916047
0.0937113
0.0926064
0.08299
0.0929751
0.085818
0.0389186
0.0838505
0.0838164
0.0852504
0.0926296
0.0749853
0.0468064
0.0875732
0.0915868
0.0719057
0.0849438
0.0920999
0.0446435
0.0925346
0.0852056
0.0723332
0.0883628
0.088653
0.0812171
0.0448376
0.0861153
0.0875873
0.0624793
0.084776
0.0885918
0.0812153
0.0478585
0.0941112
0.0828717
0.0605042
0.0881707
0.0851645
0.0439902
0.0468751
0.0862576
0.0862448
0.0582642
0.0538428
0.0976769
0.0851427
0.06703
0.0873576
0.0606022
0.0448441
0.0536165
0.087478
0.086506
0.0672401
0.0870306
0.0635002
0.0436191
0.0840271
0.0749326
0.0714166
0.0522582
0.071762
0.0771214
0.0365731
0.0752273
0.0546561
0.0527967
0.0482402
0.0562017
0.0549832
0.0348004
0.0530368
0.0557055
0.083842
0.0487441
0.073842
0.0603123
0.0690968
0.0622125
0.0844771
0.0607588
0.0871922
0.090868
0.0774844
0.0869725
0.0715277
0.0845
0.0596356
0.097216
0.0857892
0.0527987
0.0853485
0.0746135
0.0690473
0.0608079
0.0887693
0.0868608
0.0758832
0.0864673
0.0782161
0.0699898
0.0489839
0.0849054
0.0746438
0.0754203
0.0684068
0.075674
0.0513407
0.0550493
0.0732249
0.0532629
0.0698083
0.0710373
0.0520566
0.0505283
0.072392
0.0703717
0.0531814
0.0539185
0.0619662
0.0501194
0.0689215
0.0558946
0.0785306
0.0850592
0.0932873
0.0403627
0.0935344
0.0423998
0.0770391
0.0783317
0.0379535
0.0441105
0.0759696
0.0561353
0.0878973
0.089546
0.0563415
0.088126
0.0645467
0.0533181
0.0552454
0.0974253
0.0865885
0.0862231
0.0477083
0.0541094
0.0888765
0.0888607
0.0551405
0.0878633
0.0467172
0.0885604
0.0572814
0.0388262
0.0644049
0.0477226
0.0515904
0.0615554
0.0369573
0.0413754
0.0469811
0.0781054
0.0516001
0.0572091
0.0533409
0.0565156
0.050513
0.0567827
0.0671808
0.0758034
0.0557761
0.0789822
0.0576136
0.0554798
0.0538079
0.0820004
0.052591
0.0817136
0.0559725
0.0858017
0.0716738
0.0895303
0.0710005
0.0886556
0.0680174
0.0694056
0.0680121
0.06917
0.0888548
0.0908461
0.0696853
0.0907849
0.0396797
0.0882219
0.0917426
0.0743909
0.0802145
0.0878589
0.0711378
0.0704873
0.0743042
0.0717338
0.0921032
0.0826979
0.0906853
0.0753898
0.0881945
0.0901436
0.0902212
0.0933292
0.0891794
0.0783522
0.0668434
0.0899534
0.0938983
0.0694422
0.0541995
0.0888501
0.074849
0.0479707
0.047026
0.0412613
0.0467225
0.0489617
0.0741886
0.0741413
0.0436963
0.0465641
0.0486223
0.0813322
0.079665
0.0467482
0.0692906
0.083315
0.0534005
0.0704504
0.071395
0.0648261
0.0835756
0.0704038
0.0763983
0.0481785
0.0651862
0.0658327
0.0675559
0.067822
0.0923412
0.0786903
0.0532695
0.094038
0.0518451
0.0848982
0.0914413
0.0949439
0.0820778
0.048381
0.0919867
0.0511703
0.0867862
0.0951957
0.0949188
0.052634
0.0475264
0.0812569
0.0523745
0.088561
0.0953032
0.0656284
0.0740218
0.0388419
0.0862507
0.0895399
0.0634041
0.0532982
0.0439755
0.0858688
0.0821281
0.0801271
0.0549104
0.0359719
0.0686656
0.0567751
0.0809098
0.0664754
0.0867698
0.0973569
0.0832744
0.080416
0.0781184
0.0856634
0.0811105
0.073788
0.0517706
0.0814249
0.051426
0.0792623
0.0788644
0.0768459
0.0774453
0.0447743
0.0776838
0.0509957
0.079626
0.0756961
0.0814072
0.0493945
0.0426143
0.0807591
0.0503714
0.0767001
0.0763929
0.08651
0.0868284
0.0978938
0.0904485
0.0905326
0.0828629
0.0971703
0.081953
0.0821301
0.0967707
0.0863408
0.0853266
0.0742883
0.080143
0.0588546
0.0519186
0.0866291
0.0974109
0.0858523
0.0567497
0.0809784
0.0988606
0.0517937
0.0856913
0.0886351
0.086377
0.0611773
0.0821346
0.0886101
0.0537322
0.0867919
0.0506075
0.0988785
0.0737469
0.100156
0.0570463
0.0855147
0.0860716
0.0535187
0.089337
0.0756057
0.0886897
0.0561147
0.0840734
0.0857679
0.0986853
0.0874014
0.0605224
0.0807962
0.100144
0.0676308
0.0861812
0.0536277
0.0993581
0.073469
0.10055
0.0610688
0.0853495
0.0860954
0.0790402
0.0850904
0.0802973
0.0922675
0.0647329
0.0863909
0.0736809
0.0600522
0.0717152
0.0822772
0.0730204
0.0689588
0.0408598
0.0799062
0.091148
0.062766
0.0716346
0.0589221
0.0629244
0.0616301
0.0817043
0.0705467
0.0924562
0.0897545
0.0820527
0.0794202
0.0885085
0.0462567
0.0431893
0.0698618
0.0474457
0.0485545
0.0732227
0.0525876
0.0734439
0.0761095
0.0747739
0.0609052
0.0497909
0.0693853
0.0565601
0.0674564
0.0720929
0.0565722
0.0510634
0.0763192
0.0881919
0.0687699
0.0403378
0.0418829
0.074983
0.0713523
0.0421187
0.0729966
0.077618
0.0806153
0.062908
0.0391157
0.0546656
0.0387031
0.0727152
0.0812926
0.0734956
0.0605455
0.0668938
0.0757893
0.0649683
0.0729125
0.0760928
0.0824558
0.0945212
0.0890569
0.073178
0.0351578
0.0678655
0.0439562
0.0829856
0.0825213
0.0696088
0.0730852
0.0873149
0.084274
0.0720202
0.0675516
0.0719166
0.0679458
0.0719418
0.0812719
0.0468989
0.0958455
0.0848492
0.0919519
0.033855
0.079275
0.0848703
0.0317386
0.0820373
0.0870361
0.0847684
0.0318119
0.0845755
0.0721838
0.0861466
0.0803587
0.0880357
0.0884872
0.0709333
0.0760223
0.0729134
0.0531142
0.0752306
0.0851789
0.0317302
0.0958122
0.0860256
0.0897869
0.0470168
0.0797099
0.0904502
0.0625324
0.0809331
0.0881458
0.0905611
0.0497485
0.0863065
0.0473233
0.0455842
0.0862545
0.0886811
0.0857861
0.091384
0.0930382
0.0915323
0.0499287
0.0848975
0.0935387
0.0423876
0.060708
0.0880012
0.0446385
0.032728
0.079936
0.0786011
0.0651097
0.0803727
0.0859888
0.0963654
0.0951596
0.104512
0.100014
0.0993006
0.0955295
0.09554
0.10388
0.100417
0.0970331
0.101227
0.0999229
0.0996961
0.095579
0.096123
0.0953941
0.096875
0.10019
0.0978503
0.0962898
0.095766
0.0955745
0.0955245
0.100369
0.102432
0.0975069
0.0982204
0.0966958
0.0955879
0.0950814
0.104982
0.0950103
0.100772
0.0970149
0.0957733
0.0962442
0.0954119
0.0990486
0.101915
0.0974602
0.0974664
0.0952673
0.0953917
0.0955232
0.0981889
0.0957199
0.10158
0.0995727
0.0959836
0.101231
0.0979066
0.0962319
0.0986838
0.0996295
0.10206
0.100789
0.107586
0.098288
0.0974176
0.0974077
0.101159
0.0972921
0.099422
0.10036
0.0990448
0.0894107
0.0923311
0.094099
0.0993182
0.0914904
0.0948079
0.0882355
0.0919356
0.102622
0.0981234
0.101232
0.100356
0.068501
0.0699448
0.0659606
0.102988
0.0994356
0.0975478
0.101287
0.10583
0.100054
0.0858354
0.100208
0.0982071
0.0961659
0.1006
0.10279
0.097289
0.0909626
0.0990116
0.103631
0.103394
0.067388
0.0957257
0.104339
0.0971463
0.0994358
0.0993783
0.0953758
0.101506
0.0994521
0.100121
0.0871751
0.0609799
0.0857791
0.0971061
0.085965
0.0856136
0.0700567
0.0803469
0.0847869
0.0960541
0.0754739
0.0478078
0.0815205
0.0694613
0.0844798
0.0942398
0.114369
0.0945239
0.0502859
0.0991163
0.103964
0.0956834
0.0558515
0.0846806
0.097701
0.0884029
0.0862963
0.0665452
0.0580312
0.0539303
0.0467693
0.0645642
0.0602127
0.0656934
0.0971073
0.0965692
0.0975353
0.091341
0.107648
0.0994165
0.0872622
0.101148
0.0978781
0.102056
0.101561
0.093401
0.0772337
0.0833465
0.0969437
0.0568144
0.086599
0.087133
0.0920657
0.0928459
0.0809681
0.0434209
0.0459697
0.0851243
0.0482073
0.0395679
0.092879
0.094595
0.0753412
0.0921794
0.0599677
0.0996722
0.105051
0.0972477
0.104905
0.0947798
0.100635
0.102235
0.0518039
0.0876131
0.0808885
0.0812536
0.0766874
0.0740064
0.0982729
0.102561
0.0947156
0.106634
0.0933761
0.100791
0.0990478
0.0579825
0.0767957
0.056986
0.0755618
0.0723445
0.0657478
0.0974048
0.105844
0.102709
0.102634
0.093826
0.0983989
0.0995636
0.0723997
0.0586973
0.0627013
0.0739574
0.0411672
0.0730415
0.0347675
0.07181
0.0763302
0.0420356
0.0613605
0.0702033
0.0681938
0.0962
0.0960295
0.0936426
0.10138
0.0923411
0.0982917
0.0995129
0.0891009
0.0845044
0.0855897
0.0869143
0.0793007
0.0779324
0.0958423
0.101495
0.0982813
0.0989359
0.0957173
0.095787
0.0954488
0.0957123
0.0972007
0.104755
0.0952203
0.095881
0.0957182
0.0957707
0.0950216
0.0983933
0.0922583
0.0952271
0.101143
0.0968923
0.0993241
0.0965779
0.0727645
0.0764128
0.0408563
0.0941754
0.087866
0.0510893
0.074716
0.0779474
0.0415424
0.0936164
0.0683185
0.0894456
0.0775483
0.0885958
0.0912822
0.0844792
0.0948928
0.0977253
0.0991488
0.0968906
0.0985899
0.0841335
0.0962852
0.0977462
0.0933516
0.0976658
0.0886398
0.0875805
0.0864536
0.0838168
0.0915531
0.0836931
0.0904661
0.0925863
0.0863158
0.0920571
0.0661197
0.0476954
0.0674623
0.0450902
0.0879045
0.101145
0.0924655
0.0914853
0.0974273
0.0945496
0.0872835
0.0806395
0.0976413
0.082915
0.0937917
0.089487
0.0927803
0.0853437
0.0705444
0.0497574
0.0695146
0.0544002
0.0731881
0.0707286
0.0604564
0.0738632
0.0662581
0.054707
0.0794561
0.0932692
0.0875391
0.0743169
0.0947813
0.0870951
0.0900064
0.0968967
0.0934749
0.0944084
0.0966362
0.0910188
0.0942331
0.0411284
0.0432422
0.0423573
0.0407805
0.0745285
0.079071
0.0772195
0.0774113
0.0920222
0.0990926
0.0941189
0.0911783
0.095179
0.0915478
0.0801131
0.0450444
0.0446589
0.048359
0.0418075
0.0682143
0.0699711
0.0668388
0.0745371
0.0742137
0.0778147
0.0768223
0.0690098
0.0678328
0.0791056
0.0440754
0.0405591
0.0691241
0.0699633
0.036047
0.0782388
0.0753903
0.058394
0.0529364
0.0750608
0.0788939
0.0859453
0.0992976
0.0801562
0.0834688
0.080871
0.0945284
0.0654158
0.0712456
0.0707417
0.065644
0.0482374
0.0767927
0.0759843
0.0662277
0.0781788
0.0776
0.0672092
0.0581879
0.0844748
0.0766152
0.0613633
0.0540329
0.0865982
0.0879149
0.0756078
0.0873217
0.0736643
0.065241
0.0460334
0.0885226
0.0731792
0.0695226
0.0786369
0.0602398
0.0491872
0.0558221
0.0736667
0.0770694
0.0511471
0.0776906
0.0656616
0.0588415
0.0405534
0.037589
0.0306361
0.0800379
0.088024
0.0874792
0.0504432
0.0906672
0.0680424
0.0676857
0.0831292
0.0814571
0.0950721
0.0786532
0.0948256
0.0703156
0.0830205
0.0822601
0.0887647
0.0930545
0.065574
0.0954413
0.0662881
0.0829602
0.044733
0.0628083
0.0533532
0.0658207
0.061859
0.0512796
0.0450187
0.0469281
0.0446694
0.0440675
0.0951885
0.0990864
0.0838483
0.0869922
0.0911982
0.0968997
0.0893093
0.0830579
0.0864822
0.0961522
0.085505
0.0881796
0.0947126
0.0886926
0.0953794
0.0885239
0.0986648
0.0876585
0.0920568
0.0980634
0.0844177
0.0955631
0.0884121
0.0963676
0.0853088
0.0982613
0.0811684
0.0971481
0.0859939
0.0854288
0.0808805
0.094321
0.0448889
0.082754
0.0859494
0.0871876
0.0869169
0.0537144
0.043722
0.080731
0.0835082
0.0875699
0.045602
0.0868591
0.0523314
0.0809309
0.0581373
0.0316488
0.0328763
0.0381546
0.0334824
0.0693055
0.0863172
0.0866585
0.0846824
0.088006
0.0693604
0.0783857
0.0686995
0.096459
0.0806915
0.0612455
0.0825993
0.048743
0.0811217
0.0587242
0.0798948
0.0406795
0.0898513
0.0624815
0.0848549
0.0703644
0.0341019
0.0774315
0.0680057
0.0340252
0.0507159
0.0411061
0.0707928
0.0909668
0.0743874
0.0428298
0.0457021
0.0893542
0.0692071
0.0459282
0.0545668
0.0558666
0.0657064
0.0807705
0.0658026
0.0593855
0.0632309
0.0544099
0.0387875
0.053968
0.0889817
0.0796243
0.0554229
0.0862576
0.0770965
0.0532253
0.0917498
0.0799569
0.0545724
0.0819432
0.0792697
0.0607419
0.0623415
0.0315553
0.0622357
0.0686954
0.0473073
0.0396175
0.0557644
0.0468149
0.0589281
0.0443493
0.0659366
0.0505921
0.0910854
0.0782155
0.0840547
0.0792377
0.0846668
0.0523422
0.0265079
0.0384215
0.0605021
0.0655828
0.0207523
0.0796949
0.0470897
0.0848205
0.0853887
0.0842279
0.0809149
0.0796005
0.0927604
0.0833776
0.0808824
0.0928504
0.0724848
0.065214
0.0473555
0.0705986
0.0671104
0.0788628
0.0588269
0.0748063
0.0663085
0.0474457
0.0730037
0.0715403
0.075344
0.0500261
0.0888818
0.0969666
0.102359
0.0955317
0.0841637
0.0917388
0.101184
0.0958644
0.0907274
0.0989193
0.0961618
0.0882952
0.0941426
0.0964293
0.08926
0.0837329
0.0947953
0.100349
0.0891171
0.0888561
0.100682
0.0777691
0.0725981
0.053122
0.072389
0.0690911
0.0644281
0.0606414
0.056249
0.0382654
0.0409904
0.0666342
0.0486733
0.0567668
0.0763391
0.0927309
0.0821785
0.0961659
0.0869184
0.0809212
0.0857761
0.0799799
0.0853945
0.0910871
0.0832128
0.0861786
0.0742174
0.0890048
0.0667419
0.0777459
0.0843543
0.0858382
0.07349
0.0800483
0.0882104
0.0616051
0.0547507
0.0494043
0.084336
0.057513
0.0656552
0.0840264
0.0898764
0.0969973
0.0960613
0.0884517
0.0889915
0.0917833
0.0862659
0.0861431
0.0809925
0.0878877
0.0814409
0.0759803
0.0876336
0.0844248
0.0927782
0.0884916
0.0782014
0.0938235
0.0878948
0.0673284
0.0761386
0.0865753
0.0771779
0.0795563
0.0778062
0.0822158
0.0993433
0.08625
0.0885468
0.0773372
0.0816092
0.0759148
0.0809473
0.0875545
0.0882005
0.0762932
0.0803382
0.0873757
0.0566486
0.0434153
0.0697741
0.0737835
0.0718192
0.0568403
0.0762635
0.0415782
0.0365485
0.0552382
0.0532307
0.0710516
0.0503622
0.0476943
0.0757376
0.0638556
0.0723673
0.0559026
0.0588441
0.0697229
0.0552703
0.0730229
0.0439592
0.0670209
0.0760186
0.0781308
0.0654048
0.073201
0.0570418
0.0569062
0.0776803
0.0718639
0.0702655
0.0915221
0.0498461
0.0636027
0.0761463
0.0403528
0.045822
0.0851551
0.0818538
0.0815569
0.0855886
0.0706103
0.0676953
0.0243099
0.0633242
0.061381
0.0637761
0.0236079
0.0367368
0.0453324
0.0720992
0.0614617
0.0750427
0.0484477
0.0720692
0.0516222
0.0961188
0.0872685
0.0944933
0.0885927
0.0950236
0.0698542
0.0719331
0.0396806
0.0895793
0.0880489
0.0707708
0.0404537
0.0817246
0.0941904
0.100726
0.0999819
0.0808078
0.089998
0.0911574
0.0831573
0.0937608
0.0968366
0.092083
0.0906434
0.0859436
0.0926862
0.0841902
0.101668
0.0985428
0.0983858
0.0838149
0.0901679
0.0910414
0.0911938
0.0822463
0.0868023
0.0955276
0.0827924
0.0882653
0.0867682
0.0854468
0.0723243
0.0705429
0.0891952
0.0950879
0.095887
0.0895267
0.0829994
0.0755505
0.0758798
0.0809547
0.0733952
0.0877502
0.0884701
0.096682
0.0451838
0.096721
0.0807611
0.0527981
0.083465
0.0500673
0.0979538
0.0418861
0.0963822
0.0826791
0.0790147
0.0816043
0.0603932
0.0879303
0.081686
0.0685445
0.0852055
0.0961209
0.0923697
0.0893894
0.0880296
0.0856727
0.0700982
0.0658585
0.0831411
0.0818263
0.0910119
0.0803781
0.0436309
0.063889
0.0807956
0.0884033
0.0880917
0.0805313
0.0911232
0.0754686
0.0787442
0.0875221
0.0989372
0.097375
0.0877578
0.0542953
0.0553243
0.0743462
0.0586627
0.0777359
0.0828206
0.0840925
0.0756438
0.0749742
0.0478992
0.0511314
0.0711981
0.0748811
0.067663
0.0817173
0.0512072
0.0872287
0.0773523
0.0889198
0.0807231
0.0725411
0.0970234
0.0645786
0.062017
0.0805365
0.0819927
0.0812012
0.0812687
0.0817296
0.0488303
0.0384347
0.0844363
0.0495267
0.0767899
0.0668673
0.085613
0.048016
0.0863179
0.0827306
0.0786948
0.0806355
0.0687495
0.0511521
0.0379554
0.0473399
0.0788528
0.0771365
0.0768318
0.0692062
0.0862525
0.063035
0.0460377
0.0741764
0.0816379
0.0855619
0.0827308
0.0969055
0.0865441
0.0755475
0.074372
0.0869029
0.0844339
0.0798249
0.0529168
0.0503614
0.0586007
0.0712076
0.0629228
0.0652202
0.0523137
0.0581584
0.06942
0.0829674
0.0819173
0.0706724
0.0665013
0.0481823
0.0681925
0.0660415
0.0811584
0.0802967
0.0670425
0.0802025
0.0880851
0.0604822
0.0589533
0.0801253
0.087013
0.0571368
0.0762769
0.0614915
0.0704121
0.0593594
0.0744603
0.071305
0.05744
0.0797108
0.063837
0.0856259
0.0566549
0.0877391
0.0769489
0.0589071
0.073349
0.0481713
0.0673021
0.0726788
0.0503621
0.0684184
0.0857705
0.0608233
0.0891007
0.0868054
0.0566494
0.0699797
0.0772885
0.0633225
0.0742493
0.0758989
0.0580418
0.0751284
0.0889671
0.0934477
0.0753031
0.0682237
0.0896364
0.0928412
0.067815
0.0785023
0.0500026
0.0754689
0.0771255
0.0567221
0.0752636
0.0723622
0.0752365
0.0709768
0.0743365
0.0726003
0.0692753
0.0702574
0.0687264
0.0721035
0.0738759
0.0725491
0.0661735
0.0764465
0.0748326
0.0797022
0.0731705
0.0514588
0.0792647
0.07996
0.0792019
0.0795137
0.0822461
0.0828021
0.0817103
0.0792933
0.0548639
0.076318
0.0485985
0.0796789
0.0812391
0.079853
0.0823791
0.0801949
0.0804356
0.0617722
0.0804689
0.0817368
0.0824801
0.0821362
0.0887341
0.0885772
0.0569226
0.0609267
0.034009
0.0486831
0.0333834
0.0460087
0.0466983
0.0608226
0.0484359
0.0467918
0.0365548
0.0332401
0.0799836
0.0932447
0.0825624
0.0902261
0.077636
0.0880758
0.0892414
0.0782145
0.0730077
0.0893584
0.0884623
0.0862345
0.0902164
0.0891536
0.0534995
0.0915412
0.0930953
0.0809675
0.0815441
0.0513181
0.0777812
0.0489528
0.0799717
0.0729836
0.0873477
0.0892913
0.0853341
0.0935426
0.0470515
0.073773
0.0798209
0.0677584
0.0802916
0.0820085
0.0828557
0.0758393
0.073026
0.0757505
0.0808293
0.0482025
0.0677387
0.0771376
0.0663281