/*--------------------------------*- C++ -*----------------------------------*\
  =========                 |
  \\      /  F ield         | OpenFOAM: The Open Source CFD Toolbox
   \\    /   O peration     | Website:  https://openfoam.org
    \\  /    A nd           | Version:  10
     \\/     M anipulation  |
\*---------------------------------------------------------------------------*/
FoamFile
{
    format      ascii;
    class       volScalarField;
    location    "0.1";
    object      nut;
}
// * * * * * * * * * * * * * * * * * * * * * * * * * * * * * * * * * * * * * //

dimensions      [0 2 -1 0 0 0 0];

internalField   nonuniform List<scalar> 
115093
(
0.00995355
0.00995094
0.0099495
0.00994546
0.00994584
0.00992916
0.00990894
0.00987864
0.00995046
0.00995286
0.00995015
0.00994886
0.00994375
0.00992897
0.00990632
0.009872
0.00995254
0.00995438
0.00994695
0.00994654
0.00994537
0.00993131
0.00990992
0.00989619
0.00995039
0.00992925
0.00994692
0.00993982
0.0099437
0.00992522
0.00990665
0.00989737
0.00989373
0.00991901
0.00994082
0.00992819
0.0099164
0.00990781
0.00994948
0.00994426
0.00992931
0.00994557
0.00992033
0.00989648
0.00980756
0.00985988
0.00993942
0.00990879
0.00994183
0.00994221
0.00992894
0.00988042
0.00984092
0.00991498
0.00994324
0.00989499
0.00994108
0.00994555
0.00992945
0.00987629
0.00984464
0.00990227
0.00965008
0.0097549
0.00980806
0.00991073
0.00992661
0.00987432
0.00980136
0.00989019
0.00986895
0.00962287
0.00971865
0.00985408
0.00990293
0.00991704
0.00990971
0.00989514
0.0098818
0.00973805
0.00993532
0.00990897
0.00984075
0.00986186
0.00948896
0.00975035
0.00969324
0.00970167
0.00953705
0.00988351
0.00992348
0.00986992
0.00988038
0.00960028
0.00980969
0.00966987
0.00966232
0.00964567
0.00958975
0.0098673
0.00982799
0.00979077
0.00951629
0.00988637
0.00985062
0.00981978
0.00950296
0.00949706
0.00963313
0.00983894
0.0094402
0.00959305
0.0097864
0.00987533
0.00986745
0.00982209
0.00951636
0.00969652
0.00982543
0.00986115
0.00634172
0.00813072
0.00931077
0.00972147
0.00974482
0.00966746
0.00952187
0.00975531
0.00989598
0.00987058
0.00898699
0.00593672
0.00863421
0.00947267
0.00954996
0.00975939
0.00970412
0.00989396
0.00990499
0.00988504
0.00871414
0.00695303
0.0086603
0.00963387
0.00994941
0.00994108
0.00990639
0.00981168
0.00976298
0.00962879
0.00920011
0.00956253
0.0091745
0.00963615
0.00993077
0.00990023
0.00978866
0.00976608
0.00939703
0.0096289
0.00955742
0.00970041
0.00915819
0.00945387
0.00991878
0.00984492
0.00957392
0.0080516
0.00596451
0.00805965
0.00908878
0.00951836
0.00917107
0.00934416
0.00981167
0.00957291
0.00793824
0.00594861
0.00826479
0.00556997
0.00806384
0.00943375
0.00916653
0.00950786
0.00958829
0.00824674
0.0059091
0.0086069
0.00874135
0.00801957
0.00599042
0.00809686
0.00867908
0.00959706
0.00702067
0.00641059
0.00814113
0.00943079
0.00902927
0.00908822
0.00518468
0.00819477
0.0093774
0.00969174
0.00817659
0.00715227
0.00753212
0.00909392
0.00890057
0.00477387
0.00786673
0.00947134
0.009848
0.00989531
0.00855474
0.00624525
0.00674008
0.00861471
0.00501349
0.00799604
0.00901419
0.0096611
0.0098577
0.00985474
0.00890374
0.00790129
0.00700835
0.00686776
0.00807287
0.00930843
0.00961763
0.00908101
0.00955369
0.00916296
0.0099479
0.00993282
0.00983505
0.00976748
0.00947306
0.00805905
0.0063346
0.00513505
0.00754411
0.00919628
0.00993262
0.00982132
0.00978071
0.00942273
0.00823489
0.00564951
0.00656064
0.0071325
0.00540819
0.00838907
0.00976467
0.00940251
0.00790258
0.00596175
0.00789647
0.00721452
0.00636589
0.00748567
0.00698824
0.00860732
0.00945696
0.00811644
0.00594502
0.00692943
0.00644454
0.00668076
0.00631046
0.00826601
0.00582373
0.00834907
0.00788675
0.00600463
0.00711514
0.00820899
0.00895472
0.00870478
0.00602451
0.00446185
0.00756422
0.00940095
0.00811025
0.00763373
0.00813489
0.00902125
0.00903922
0.00881332
0.00647824
0.00805724
0.00836493
0.00932767
0.00828178
0.00726256
0.00856341
0.00908868
0.00863954
0.00631782
0.00530851
0.00859226
0.00932796
0.00976173
0.00238187
0.00341613
0.00321425
0.00794226
0.00773431
0.00481645
0.00836474
0.00968151
0.00987957
0.00989727
0.00498411
0.00289253
0.00350196
0.00677776
0.00486694
0.0083096
0.00969148
0.00946853
0.00969904
0.00895124
0.00992255
0.00983462
0.00976774
0.00945745
0.00827265
0.00557825
0.0061201
0.00683967
0.00531669
0.00831628
0.0097389
0.00957302
0.00936805
0.00883336
0.00605977
0.00655668
0.00522942
0.00285055
0.005972
0.00443775
0.00764211
0.00935874
0.00822316
0.00565585
0.00779328
0.00646606
0.00512301
0.00314734
0.00279927
0.00600819
0.00448217
0.00788448
0.00861132
0.00591017
0.00625319
0.00564016
0.00279697
0.00316948
0.00340747
0.00240112
0.00631309
0.00417308
0.00767501
0.0056312
0.00608609
0.00541783
0.00216473
0.00148638
0.00160807
0.00320569
0.00529407
0.00510571
0.00842585
0.00875793
0.00669189
0.00557086
0.0023243
0.00188399
0.00143038
0.00127642
0.00529286
0.00409455
0.00757622
0.00946989
0.00965591
0.00308016
0.00246184
0.00155381
0.00149239
0.00258914
0.00247363
0.0046591
0.008506
0.00903905
0.00974622
0.00978961
0.00151576
0.00109878
0.00150306
0.00136098
0.006263
0.00486169
0.00822618
0.00971121
0.00979047
0.00986963
0.00987172
0.00151711
0.00261346
0.00441527
0.00851003
0.00980909
0.00940858
0.00969564
0.00895895
0.00992016
0.00985184
0.00987513
0.00951287
0.00832395
0.00610718
0.00572184
0.00724223
0.00544873
0.00840167
0.00974856
0.00965378
0.00946641
0.00873603
0.00658011
0.00590689
0.00334711
0.00275424
0.00548556
0.00414723
0.00779448
0.00936655
0.00827116
0.00607913
0.00793858
0.00544929
0.00306121
0.00175801
0.000524106
0.00222658
0.00431987
0.0074993
0.00860451
0.00564405
0.00650844
0.0060723
0.00307664
0.00144488
0.000322716
0.000958603
0.0052658
0.00434665
0.00782062
0.0054241
0.00662061
0.00561117
0.00263497
0.000843902
0.000110146
0.000383292
0.00201796
0.00447626
0.008497
0.00888514
0.00732703
0.00571727
0.00282849
0.00128585
0.000208137
0.000344191
0.00224352
0.00533401
0.00778546
0.0094866
0.00967585
0.00338777
0.00294673
0.00326791
0.00128352
0.00087882
0.00236016
0.00458312
0.00866996
0.00904162
0.00975724
0.00979976
0.000777159
0.00081153
0.000880077
0.000749527
0.00213375
0.00493276
0.00830492
0.00970617
0.00981063
0.00987858
0.00988018
0.000234121
0.00285447
0.00420276
0.00846744
0.00976145
0.00919168
0.00964244
0.00920932
0.00993834
0.00989976
0.00980188
0.00939825
0.00820156
0.00581821
0.0059197
0.004847
0.00735124
0.00927938
0.00993024
0.00984205
0.00964002
0.00850723
0.00661501
0.00659898
0.00714422
0.00696972
0.00488273
0.00851656
0.00867811
0.00979272
0.00954554
0.00815771
0.00605673
0.00605151
0.00507518
0.00243933
0.00257247
0.00590917
0.00359036
0.00728091
0.0095767
0.00820608
0.0059554
0.00620087
0.00500902
0.00253512
0.00323333
0.00597631
0.00542895
0.00845852
0.008688
0.00852627
0.00582297
0.00466829
0.00284095
0.00269822
0.00290825
0.00228027
0.00496286
0.0074507
0.00939602
0.00951497
0.00703293
0.00677609
0.00492915
0.00348567
0.00355008
0.00210998
0.00475775
0.00845979
0.00875244
0.00971118
0.00979755
0.00299585
0.00302925
0.00273412
0.00272395
0.0044982
0.00225826
0.00486573
0.00777138
0.00963204
0.00971594
0.00986266
0.00985632
0.000843269
0.000817205
0.00105849
0.0040253
0.00264052
0.00448089
0.00822036
0.00914363
0.00981422
0.00986373
0.00986806
0.00987262
0.00133376
0.00752935
0.00852177
0.00945902
0.00994658
0.00993058
0.00987583
0.00973999
0.00967888
0.00955255
0.00882614
0.00960137
0.0089834
0.00963373
0.0099208
0.00987834
0.00974529
0.00924596
0.00771488
0.00574739
0.00563741
0.00463108
0.00724777
0.00929448
0.00947091
0.00992559
0.00986605
0.00960393
0.0079984
0.00630233
0.00743052
0.00665496
0.00689867
0.00457686
0.00835984
0.00869773
0.00981314
0.00958431
0.00797558
0.00629033
0.00690442
0.00874154
0.00706404
0.00523694
0.00736655
0.00934535
0.00947735
0.00947982
0.00820982
0.00629462
0.00770394
0.00796367
0.00868946
0.00605669
0.00826617
0.00862807
0.00971686
0.00979867
0.00714238
0.00718976
0.00744689
0.00908097
0.0080565
0.00618086
0.00772582
0.00954655
0.00962615
0.00984564
0.00986233
0.00748994
0.00767293
0.00750431
0.00694071
0.00843614
0.00616654
0.00811505
0.00911947
0.0098439
0.00985719
0.00986255
0.00986148
0.00248469
0.00256748
0.00270332
0.00778805
0.00696761
0.00841595
0.00948638
0.00975342
0.00986792
0.00989552
0.00989517
0.00988506
0.00308245
0.00128996
0.00328948
0.00995119
0.00995021
0.00994701
0.00992599
0.00988106
0.00984269
0.00965726
0.00956267
0.00951049
0.00994828
0.00993586
0.00988616
0.00976428
0.00977683
0.00976836
0.00917642
0.00961842
0.0092164
0.00992968
0.00990214
0.00982917
0.00979286
0.00932918
0.00981422
0.00950192
0.00972541
0.00882542
0.00991138
0.00985306
0.00986719
0.0096471
0.00979228
0.00983043
0.00950371
0.009546
0.00916441
0.00983626
0.00982317
0.00951795
0.0098632
0.0098024
0.00983668
0.0093936
0.00959781
0.00961683
0.00948532
0.00943976
0.00966348
0.00975474
0.00972881
0.00971568
0.00958575
0.00986586
0.00985256
0.00736549
0.00592397
0.00816569
0.0093514
0.00947
0.00977958
0.00978388
0.00986531
0.00987634
0.00848705
0.00836681
0.00605708
0.00857418
0.00942437
0.00983735
0.00986995
0.00995236
0.00995155
0.00994715
0.00994042
0.00992332
0.00989163
0.00988902
0.00985943
0.00983073
0.00995141
0.00995237
0.00994868
0.00994379
0.00992751
0.00989369
0.00980961
0.00973427
0.00970514
0.00995171
0.00994489
0.00992011
0.00986914
0.0099205
0.00989578
0.00980822
0.00966248
0.00958617
0.00994989
0.0099421
0.00992152
0.00992968
0.00991634
0.00990641
0.00982351
0.0097465
0.00970907
0.00993615
0.00990117
0.00994358
0.00993948
0.00991774
0.00986802
0.00981697
0.0098932
0.0098842
0.00994265
0.00993672
0.00990635
0.00992985
0.00991245
0.00988073
0.00984263
0.00986333
0.00986902
0.00972486
0.00968831
0.00975811
0.00983412
0.00987464
0.00990776
0.00991346
0.00991644
0.0099085
0.00986137
0.00988647
0.00958062
0.00972819
0.00994597
0.00993701
0.0099286
0.00991189
0.00990408
0.00988697
0.00986438
0.00994918
0.00994502
0.00993686
0.0099283
0.0099153
0.00989216
0.00985356
0.00994361
0.00993489
0.00993537
0.00992333
0.00991342
0.00988179
0.00986146
0.00994311
0.00994275
0.00994023
0.00992953
0.00991689
0.0098956
0.0098834
0.00994661
0.00994141
0.00993998
0.00991935
0.00991163
0.00991122
0.00989932
0.00991353
0.00992601
0.00994122
0.00993248
0.0099215
0.00991342
0.00990627
0.00676353
0.00612472
0.00586334
0.00426976
0.00255638
0.00260395
0.00230895
0.0025394
0.00329137
0.00111039
0.00265075
0.00475866
0.00277228
0.00138431
0.00201911
0.000112996
0.0022688
0.00265882
0.0025875
0.00149564
0.00109979
0.000327563
0.00170412
0.003556
0.00344651
0.0029952
0.00390988
0.00345905
4.6487e-05
0.00267415
0.00371168
0.00253664
0.000217754
0.00142375
0.00234721
0.0026564
0.00241486
0.00145772
0.000589892
0.000371658
0.000313045
0.000992704
0.00141062
0.000935783
0.00103719
0.000355466
7.98412e-05
0.000195062
0.00190132
0.00307201
0.0010284
0.00288027
0.00115441
0.0015965
0.00105409
0.00141806
0.000953703
0.00134811
9.06782e-05
0.000504894
0.00230557
0.0024604
0.00327132
0.00243888
0.00140151
0.00134875
0.00253069
0.00402591
0.00103905
0.00300741
0.00277451
0.00119541
0.00168714
0.000996135
0.0013753
0.00103483
0.00345298
0.00166795
0.00142164
0.00105802
0.00142356
0.0010141
0.00158567
0.000303654
0.00102935
0.0013076
0.00271684
0.000548386
0.00038038
0.00178245
0.00126651
0.00118596
0.000794373
0.00105815
0.000822638
0.00106099
0.00115394
0.00182124
0.000868069
0.000134789
0.00102907
0.00157483
0.00304385
0.000365049
0.000192526
0.00246175
0.00168666
0.000184867
0.00320883
0.0029752
0.00030405
0.00353103
0.00584974
0.000402089
0.000135796
0.000218829
0.00284728
0.00365433
0.00431438
0.00304171
0.000131471
0.00018283
0.000247027
0.0027117
0.00183571
0.00147331
0.00114384
0.000215639
0.000595904
0.00483668
0.00218934
0.00167209
0.00102418
0.000785107
0.00244483
0.00136677
0.000862286
0.00305657
0.00235546
0.000716942
0.000799898
0.00269928
0.00106424
0.00195374
0.00300146
0.00260846
0.000815687
0.0012851
0.000394455
0.00377253
0.00108344
0.00156446
0.00123468
0.000712809
0.000801831
0.000733226
0.000894424
0.000936678
0.000880244
0.000855137
0.00013316
0.000905164
0.00113794
0.00118233
0.000166105
0.0011868
0.00330658
0.00660518
0.00145428
0.00418827
0.00545252
0.000986669
0.00117617
0.000773475
0.00364973
0.00258225
0.00133664
0.00122383
0.00125931
0.00328177
0.00292705
0.00153401
0.00110667
0.00119955
0.00136536
0.00164241
0.00139211
0.00112872
0.00141617
0.0014308
0.00328707
0.00229938
0.00109976
0.00236964
0.00627599
0.00899794
0.00609562
0.00394124
0.0022402
0.00376756
0.00208575
0.00648218
0.00906033
0.00628615
0.00417009
0.00242128
0.00393255
0.00203607
0.00625422
0.00867718
0.00645006
0.00448541
0.00183623
0.00349837
0.00305349
0.00475785
0.00327947
0.00497818
0.00282897
0.0025512
0.00125131
0.00276512
0.00210067
0.00306094
0.00240244
0.00279982
0.00277744
0.00254518
0.000642293
0.00229742
0.00158873
0.000993213
0.00303702
0.00209538
0.00113524
0.000393747
0.00201736
0.00320775
0.00258781
0.000521742
0.000656449
0.000349771
0.00209233
0.000944921
0.00306561
0.00103605
0.0028774
0.00138963
0.00144517
9.96677e-05
0.000223118
0.00128606
0.00145513
0.000995556
0.00142921
0.000723803
0.000424135
0.00235318
0.00124746
0.00252474
0.000348545
0.000336326
0.000221802
0.00169055
0.00090023
0.00148028
0.00269506
8.69033e-05
0.000221394
0.000616985
0.00294446
0.000541867
0.00133275
0.00146624
0.000451838
0.00125132
0.000591648
0.000364079
0.00250168
0.00357512
0.00361765
0.000674641
0.00307072
0.00278539
0.00211037
0.00150559
0.000743022
0.00166892
4.42267e-05
0.00134704
0.000813896
0.00125542
0.000857689
0.00194679
0.00175354
0.00127992
0.00079375
0.00211286
2.43766e-05
0.000376129
0.00139733
0.00140963
0.00142732
0.00329071
0.00288325
0.00258832
0.000459386
0.00308278
0.0041553
0.00302128
0.000657277
0.000693626
0.00231519
0.00252481
0.000516596
0.00326642
0.00267327
0.00249283
0.00354454
0.00259491
0.00105893
0.0002001
0.00334848
0.00264396
0.00281067
0.00296139
0.000748949
0.000266755
0.0015578
0.00494488
0.00260886
0.00405748
0.00241967
0.00104583
0.00110979
0.000218903
0.00279883
0.00216193
0.00391347
0.00095361
0.000368082
0.000714992
0.000111609
0.0010739
0.00162242
0.000730235
0.000239865
0.000305177
0.00166932
0.00404476
0.00277004
0.00305179
0.00258428
0.0013736
0.00132196
0.00308779
0.0036501
0.00283829
0.00100743
0.00082005
0.000902359
0.000888904
0.00104884
6.83136e-05
0.000824908
0.00106336
0.000308661
0.000739117
0.00264164
0.00162603
0.00107008
0.0030701
0.0025461
0.00142081
0.00151346
0.00317254
0.00261808
0.00106395
0.00197363
0.000804495
0.000457878
0.000178288
0.00106531
0.00147638
0.00141289
0.000689565
0.000520108
0.00199572
0.00165129
0.00157435
0.00321363
0.00277194
0.000820645
0.000168902
0.000930636
0.000113118
0.000442736
0.000248566
0.000824758
0.00143124
0.000455503
0.000170862
0.00219165
0.00182666
0.00115541
0.0012961
0.00305529
0.00261365
0.00403293
0.00210307
0.00886112
0.00606277
0.00896376
0.00608648
0.00286015
0.00425374
0.00217953
0.0090074
0.00634128
0.00902406
0.00631651
0.00113117
0.00203268
0.00117854
0.00122948
0.00319496
0.00334629
0.00259362
0.00230906
0.00226547
0.00112897
0.00119946
0.00357016
0.00223621
0.00269073
0.00278631
0.00283554
0.00346002
0.00237672
0.00822398
0.00696224
0.00569236
0.00583393
0.000710739
0.000823462
0.00111897
0.00145164
0.000714998
0.000721052
0.001001
0.00124961
0.00136875
0.00074555
0.00185864
0.00138739
0.00249506
0.00257027
0.00144332
0.00282896
0.000478424
0.000886946
0.00334175
0.00355215
0.00449132
0.00212764
0.00432965
0.00232953
0.00380174
0.00244082
0.00809774
0.00481391
0.00298455
0.00218564
0.0025857
0.00399724
0.00243977
0.00809035
0.00562013
0.002661
0.00386354
0.00323704
0.00080054
0.00142557
0.00147313
0.000794557
0.0013866
0.00163098
0.000805939
0.00124622
0.00136114
0.000823387
0.001207
0.00173544
0.000776333
0.00158942
0.00134584
0.000912582
0.00104351
0.00152137
0.000773138
0.00153502
0.00162138
0.00151991
0.00162844
0.00232625
0.00145869
0.00183828
0.00148643
0.00227561
0.00147885
0.00174999
0.00120184
0.00226524
0.00134874
0.0014627
0.0015231
0.00197176
0.00126188
4.20682e-05
0.00110487
0.00142508
0.00141239
0.00182489
0.000877831
0.00010482
0.00152972
0.001654
0.000898749
0.00151582
0.00161145
0.000192599
0.00156059
0.0015435
0.00091948
0.00157989
0.000993141
0.00114078
0.000117364
0.00148913
0.00099315
0.000452825
0.00133501
0.00098473
0.000821703
0.000256496
0.00140369
0.00130666
0.000401575
0.00167648
0.000983179
0.000148864
0.000250769
0.00100588
0.00163378
0.000335963
0.000195045
0.00143779
0.00139987
0.000440632
0.00154156
0.000340295
0.000215532
0.000197028
0.000965168
0.00146681
0.000436082
0.00150891
0.000561237
0.000208808
0.000939806
0.000713714
0.000714134
0.000197554
0.000666234
0.000735483
0.000143191
0.000721568
0.000376901
0.000284698
0.000157354
6.47986e-05
0.000296737
0.000129942
0.000358383
6.24808e-05
0.00126124
3.19016e-05
0.000678978
0.000407713
0.00068035
0.000474392
0.00144647
0.000419845
0.00149419
0.00108956
0.000640337
0.00149585
0.000769111
0.000804994
0.000410935
0.00143549
0.00140353
0.000321004
0.0014174
0.000666618
0.000612395
0.000423977
0.00100125
0.00148128
0.000715727
0.0015086
0.000740863
0.000562201
0.000261077
0.0011407
0.000898307
0.000738528
0.000807907
0.000660661
0.000164907
0.00033268
0.000796043
0.000104558
0.000743916
0.000564271
0.000158045
6.85299e-05
0.000618882
0.000608346
0.000309527
0.000167154
0.000508983
0.000197395
0.000568155
0.000358206
0.00120404
0.00130003
0.00151966
3.53787e-05
0.0014938
3.92934e-05
0.00119319
0.00103906
0.000119233
0.000181046
0.000977179
6.37765e-05
0.00155517
0.00107544
0.000285035
0.00159313
0.000477706
0.000288048
6.39627e-05
0.00146083
0.00149351
0.00151735
0.000207966
0.000145231
0.00105532
0.00168953
0.000428536
0.00164016
0.000196699
0.00129298
0.000362751
0.000128461
0.000498904
0.000223477
0.000262026
0.000425546
3.6857e-05
0.000139778
0.000311619
2.16856e-05
0.000385795
2.51323e-05
0.000317937
3.26263e-05
0.00039492
0.000465469
0.000594935
0.000949925
0.000365799
0.000994694
0.000515716
0.000438379
0.000412959
0.00131774
7.06546e-05
0.00126578
0.000485836
0.00159883
0.000775353
0.00151409
0.000764418
0.00151814
0.000807075
0.000824161
0.000800904
0.00079818
0.00181302
0.00153625
0.000790739
0.00168858
8.90935e-05
0.00152931
0.00133864
0.000915481
0.00101761
0.00173332
0.000823693
0.000803866
0.000799309
0.000793857
0.00136195
0.00126931
0.00209757
0.00101744
0.00153258
0.00190595
0.00184341
0.00206833
0.00204681
0.0008951
0.000662131
0.00189859
0.00222966
0.000723873
0.000213979
0.00187537
0.000833712
0.000177705
0.000296984
0.000257097
0.000311043
0.000340087
0.000986785
0.000885469
0.000292499
0.000308234
0.000213953
0.0014467
0.00102596
0.000320202
0.000736883
0.00159795
0.000225249
0.000882645
0.000968696
0.000710536
0.00154698
0.000886001
0.00117306
0.000201871
0.000520971
0.000724173
0.000602874
0.000781144
0.00182774
0.0010147
2.35687e-05
0.00174023
0.000205839
0.00126227
0.00157153
0.00226053
0.000862494
6.04498e-05
0.00136595
0.000191024
0.00114201
0.00195468
0.00207858
4.508e-05
5.84059e-05
0.00107369
0.000133892
0.00138431
0.00200417
0.000387955
0.000732163
0.000158858
0.00132657
0.00188672
0.000464641
0.000272909
7.39641e-05
0.000821245
0.00061982
0.000589218
0.000287935
0.00013368
0.000553251
0.00041872
0.000598415
0.000445488
0.00109875
0.00149248
0.00121453
0.000693061
0.000641669
0.00129588
0.000844926
0.00084651
0.000294472
0.000787572
7.0451e-05
0.000939563
0.000685491
0.000842056
0.000714662
6.0085e-05
0.000682386
6.77526e-05
0.000910301
0.000638661
0.00086687
0.000257965
6.99181e-05
0.000752477
0.000147325
0.000676074
0.000608769
0.00144259
0.00115326
0.00343035
0.00229316
0.00173629
0.000970617
0.0042461
0.00124967
0.000769552
0.00192647
0.00143626
0.00122932
0.000775884
0.00118672
0.000483832
0.000283904
0.00161458
0.00159547
0.00148283
0.000411107
0.00123674
0.00157657
0.000287146
0.00160193
0.00115624
0.00132689
0.000389737
0.00138948
0.00109604
0.000250143
0.00159524
0.000242867
0.00135309
0.000837952
0.00145664
8.71033e-05
0.00148144
0.0015778
0.000253831
0.00106138
0.00086041
0.00109849
7.88094e-05
0.00149941
0.00146475
0.00157138
0.00149462
0.000386736
0.00128468
0.00150368
0.000490293
0.00146052
0.00026516
0.00138032
0.000849629
0.00153142
0.000359842
0.00141926
0.00145523
0.000691242
0.00098843
0.00103101
0.00115761
0.000412129
0.0015064
0.000749674
0.000362952
0.000745691
0.00131304
0.000518293
0.000750817
0.000105609
0.00106914
0.00171233
0.000410512
0.000685332
0.000408881
0.000390701
0.0003904
0.0011245
0.000711434
0.00243805
0.00110526
0.00130403
0.000758022
0.00186054
0.000237188
0.000133069
0.000825665
0.000100205
8.72221e-05
0.00090296
7.39556e-05
0.000907199
0.000933028
0.000746615
0.000450951
7.40622e-05
0.000741696
0.000308819
0.000554291
0.000790838
0.000313503
0.000350112
0.00102789
0.00188253
0.000783544
0.000109994
0.000227777
0.00105674
0.000809879
0.000155874
0.000638049
0.00108314
0.00102395
0.000612305
6.15558e-05
0.0004461
0.000165764
0.000984422
0.0014295
0.000849313
0.000579128
0.000521531
0.00108054
0.000699592
0.000679563
0.00108527
0.00111533
0.00379997
0.00122095
0.000751253
3.20866e-05
0.000683948
0.000240415
0.00102719
0.00116019
0.00071194
0.00083586
0.00110481
0.00150067
0.000721946
0.00074243
0.000697831
0.000726486
0.000801083
0.00116905
0.000379223
0.00154289
0.00138946
0.00125209
6.8141e-05
0.0012598
0.00116865
7.15772e-05
0.00107398
0.00152161
0.00115419
6.44959e-05
0.00156636
0.000747338
0.001259
0.00103154
0.00140887
0.00118511
0.000830072
0.000811885
0.00083434
0.000466353
0.000774589
0.00132769
7.41415e-05
0.00162983
0.00146077
0.00112461
0.000307378
0.00122229
0.00150504
0.000623538
0.00110318
0.00167422
0.00118587
0.000390132
0.00154545
0.000288799
0.000252647
0.00145683
0.00182812
0.00149764
0.00160015
0.00188704
0.00178477
0.000406519
0.00149521
0.00141283
0.000195881
0.000594212
0.00186789
0.000249173
6.64492e-05
0.00128671
0.00119196
0.000660625
0.00122631
0.00140792
0.0057823
0.00606369
0.00217625
0.00312435
0.00572443
0.00886859
0.00564017
0.00254875
0.0036979
0.00312459
0.00256496
0.00339805
0.00318216
0.00610122
0.00857771
0.006575
0.00314109
0.00269706
0.00265342
0.00339513
0.00642508
0.00871395
0.00625848
0.00270359
0.00239573
0.00325052
0.00251199
0.00570528
0.00891099
0.00604862
0.00278688
0.00241387
0.00311236
0.00298181
0.00635428
0.00854517
0.00627079
0.00276242
0.00307139
0.00313654
0.0024027
0.00604354
0.00893607
0.00590262
0.00389978
0.00200823
0.00299736
0.00242028
0.00614712
0.0022294
0.00549157
0.00256688
0.00478915
0.00281665
0.00222142
0.00534733
0.00212668
0.00384636
0.00304984
0.00527747
0.00290325
0.00242667
0.00279118
0.00257348
0.00328873
0.00162459
0.0021555
0.00429378
0.00500364
0.00147848
0.00449868
0.0016611
0.00152047
0.00211781
0.00337774
0.00206066
0.00285493
0.000553666
0.000622523
0.00049491
0.00206484
0.00284172
0.00163958
0.00573198
0.0021853
0.00249138
0.00130058
0.00211301
0.00287297
0.00271759
0.00570195
0.00242184
0.00287593
0.00245001
0.00242225
0.00288854
0.00355645
0.000558873
0.00271311
0.0028386
0.00226873
0.00214538
0.0027678
0.00210742
0.00536377
0.00227408
0.00275865
0.00154223
0.000421722
0.00141043
0.00151162
0.00102804
0.00140329
0.000841447
0.000675194
0.00136777
0.0014206
0.000557659
0.000226503
0.000776533
0.000713488
0.00134888
0.00303715
0.00272395
0.0023904
0.00026048
0.00251312
0.00334971
0.00278945
6.17329e-05
0.00135626
0.00150516
0.00110284
0.00148621
0.000571513
0.000346135
0.000397099
0.000123928
0.000513386
0.00042784
0.000569977
0.00282106
0.0028992
0.00475865
0.00242513
0.0021371
0.00240271
0.00124273
0.00546986
0.00421825
0.00544378
0.00201003
0.00200483
0.00110734
0.00105348
0.00183537
0.000319348
0.00114835
0.00106498
0.00151244
0.0015355
0.00115285
5.27077e-05
0.00030652
0.00150749
5.97445e-05
0.00015466
0.00145581
0.00189071
0.000699909
0.00170307
0.000453963
0.00211408
0.00263844
0.00225238
0.00280568
0.00247843
0.00336556
0.00355816
0.000294281
0.000827407
0.000664015
0.00067195
0.000810153
0.000703468
0.00244454
0.00313132
0.00254104
0.00264049
0.00259241
0.00331236
0.00362342
8.21168e-05
0.000724533
0.000504852
0.000603461
0.000488461
0.000509212
0.00263283
0.00208423
0.00371756
0.00265422
0.0025072
0.00350528
0.00414719
0.000810224
0.00048473
0.000622595
0.000919645
3.70312e-05
0.00101298
6.25777e-05
0.000877072
0.000963813
0.000266093
0.0003837
0.000816119
0.000668823
0.00282353
0.00366939
0.00266829
0.0030863
0.00273745
0.00319632
0.00392156
0.00270046
0.00174528
0.00145087
0.00202422
0.0012775
0.00119904
0.00157839
0.00360452
0.00302451
0.00331562
0.00887935
0.00609199
0.00896665
0.00614727
0.00190973
0.00278373
0.00246541
0.00887296
0.00567093
0.00867751
0.00573854
0.00234082
0.00105329
0.00291218
0.00558215
0.0050306
0.00293543
0.00239623
0.000782808
0.000885381
0.000127432
0.00122937
0.00143197
0.000260417
0.000768895
0.0010821
5.10594e-05
0.00165497
0.000749278
0.00107741
0.00112275
0.00187156
0.00235712
0.00124323
0.00309243
0.00381809
0.00484354
0.003408
0.00488171
0.00133783
0.00286046
0.00590559
0.00162844
0.00486223
0.00107108
0.00163169
0.00145363
0.0013029
0.00219464
0.00140724
0.00143932
0.00378936
0.00109318
0.00162127
0.000728913
0.000344944
0.000742801
0.000269862
0.00181537
0.00357265
0.00335558
0.00132741
0.00262772
0.00129648
0.00145682
0.00120389
0.00365613
0.00127777
0.00136054
0.00257121
0.00135081
0.00126755
0.000787918
0.000360062
0.000749426
0.00040097
0.000877077
0.000703037
0.000577782
0.000747002
0.000705989
0.000409273
0.0012605
0.00165641
0.00118128
0.000846522
0.0015893
0.00143186
0.00186247
0.00363651
0.0017817
0.00190396
0.00357936
0.00155686
0.00189056
0.000229005
0.000280936
0.000241674
0.000247195
0.00107178
0.00136606
0.00117445
0.00129877
0.00210612
0.00475882
0.0034448
0.00127166
0.0042547
0.00149034
0.00116605
0.000256394
0.000289354
0.000302682
0.000251933
0.000849265
0.000728825
0.000757241
0.000907272
0.00106068
0.00125104
0.00116067
0.000819764
0.00076929
0.00111719
0.000298699
0.000241627
0.000795218
0.000868309
4.30017e-05
0.0011228
0.000836294
0.000547649
0.000430694
0.000987003
0.00097035
0.00133455
0.002502
0.00118077
0.00101207
0.00113067
0.00150068
0.000581319
0.000883731
0.000560901
0.00065079
0.00024436
0.00106094
0.000628794
0.000513226
0.00106134
0.000851187
0.000654893
0.000334367
0.00098686
0.00106456
0.000373836
0.000238991
0.00141706
0.000954953
0.000733032
0.00146595
0.00069804
0.000563439
0.000105281
0.00108816
0.000740967
0.000706609
0.000857682
0.000521536
0.000131998
0.000348067
0.000801967
0.000703422
0.000174943
0.000931594
0.000500414
0.000180225
0.000230391
0.000110009
0.000141296
0.00110586
0.00102984
0.00149711
0.000282571
0.00213881
0.000681541
0.000607438
0.00120095
0.00120529
0.00364296
0.000925318
0.00336851
0.00076014
0.00131321
0.00114854
0.0012873
0.00145294
0.000543772
0.00188108
0.000601549
0.00133068
0.00024626
0.000438068
0.000246095
7.82037e-05
0.000575003
0.000353296
0.000280049
0.000338321
0.000288061
9.84267e-05
0.00405122
0.00417669
0.00145246
0.00172055
0.00260258
0.00474186
0.00151014
0.00112507
0.00148899
0.00275193
0.00160347
0.00179524
0.00411773
0.00127048
0.00246237
0.00168972
0.00381532
0.00170996
0.00286315
0.00566327
0.00139291
0.00317932
0.00167071
0.0032298
0.00155949
0.0049305
0.00123531
0.00308557
0.00147688
0.00122243
0.0011302
0.00147977
0.000135237
0.00124661
0.00106548
0.00138596
0.00144537
0.000292918
2.31931e-05
0.00121783
0.00143427
0.00187063
0.00020733
0.00183674
0.000292765
0.00124083
0.000519043
0.000110732
3.69684e-05
0.000157129
0.000147041
0.000683195
0.00144063
0.00145328
0.000844662
0.00150794
0.000619976
0.000983419
0.000655824
0.00145016
0.0012041
0.000520767
0.00137992
0.000244347
0.00134014
0.000559472
0.00102525
6.60428e-05
0.00152163
0.000660219
0.00120508
0.000798019
7.30812e-05
0.00106284
0.000844117
6.05808e-05
0.000371136
8.40965e-05
0.000908872
0.00139983
0.000902584
0.000186547
0.000227292
0.00170042
0.000874054
0.000232444
0.000449245
0.000434227
0.000665287
0.00115161
0.000587975
0.00046657
0.000583645
0.000372582
0.000271103
0.000407298
0.00164136
0.00108025
0.0004188
0.0016264
0.000893759
0.00039741
0.00143983
0.00144467
0.000255799
0.0013442
0.000973973
0.000615813
0.00057978
0.000106516
0.000595555
0.000802722
0.000331239
0.000246431
0.000490178
0.000362609
0.000526711
0.000304959
0.000673648
0.000373779
0.00225304
0.00125991
0.00180825
0.00120022
0.00152437
0.000406598
0.000138215
0.000252434
0.000569483
0.000641714
9.39446e-05
0.00143931
0.000250913
0.00196553
0.0015675
0.00127001
0.00156275
0.00141674
0.0040299
0.00111474
0.00156223
0.00374306
0.000644551
0.000650785
9.40564e-05
0.000553223
0.000676493
0.000647627
0.000353756
0.000692789
0.000642322
8.13429e-05
0.000643425
0.000700487
0.000615575
0.00017738
0.00175599
0.00178818
0.00550213
0.00358816
0.00125755
0.00160473
0.00629308
0.0021094
0.00136302
0.00463363
0.00409902
0.00119754
0.00203546
0.0042686
0.00189409
0.00119375
0.00332546
0.00628376
0.0014314
0.00184272
0.00632084
0.000409582
0.000686955
6.6159e-05
0.000629116
0.000711003
0.000381468
6.93817e-05
0.000376105
0.000144536
0.000154824
0.000557432
0.000324065
0.000366024
0.000599364
0.00157395
0.00112814
0.00158771
0.00141292
0.000945624
0.00125318
0.00062128
0.00132195
0.00171957
0.00111652
0.00160197
0.000713778
0.00141839
0.000435646
0.000698515
0.00117589
0.00134611
0.000671
0.000642996
0.00142528
0.000417167
0.000448183
0.000282955
2.614e-05
0.000115112
6.50081e-05
0.00128352
0.00116594
0.00423217
0.00449432
0.00144639
0.00145274
0.00302248
0.00137614
0.000988768
0.00109536
0.00138799
0.000911184
0.000732824
0.00158714
0.0013783
0.00228088
0.00146102
0.000861065
0.00241213
0.0011388
0.000488528
0.000630128
0.00067689
0.000651177
0.000702197
0.00102925
0.00123567
0.0030624
0.00146705
0.00146443
0.000716073
0.00117556
0.000760533
0.000730203
0.00105615
0.00166926
0.000659128
0.0006796
0.00159086
0.000330515
0.000101473
0.000790604
0.00107955
0.000989837
0.00031652
0.000755307
9.15672e-05
5.82462e-05
0.00021154
0.000304147
0.000831186
0.000233973
0.000308874