/*--------------------------------*- C++ -*----------------------------------*\
  =========                 |
  \\      /  F ield         | OpenFOAM: The Open Source CFD Toolbox
   \\    /   O peration     | Website:  https://openfoam.org
    \\  /    A nd           | Version:  10
     \\/     M anipulation  |
\*---------------------------------------------------------------------------*/
FoamFile
{
    format      ascii;
    class       volScalarField;
    location    "0.1";
    object      omega;
}
// * * * * * * * * * * * * * * * * * * * * * * * * * * * * * * * * * * * * * //

dimensions      [0 0 -1 0 0 0 0];

internalField   nonuniform List<scalar> 
115093
(
9.52401
9.52741
9.52926
9.53443
9.53396
9.55536
9.58147
9.62049
9.52793
9.52488
9.52833
9.52999
9.53654
9.55558
9.58487
9.62926
9.52542
9.52425
9.53261
9.53313
9.53456
9.55265
9.58019
9.59755
9.52788
9.55709
9.53262
9.54162
9.53657
9.56033
9.58433
9.59583
9.60171
9.5687
9.54046
9.55667
9.5717
9.58243
9.52924
9.53591
9.55524
9.54016
9.56935
9.59815
9.71606
9.645
9.5423
9.58174
9.53898
9.53882
9.55581
9.61888
9.66933
9.57307
9.53616
9.60127
9.54018
9.53454
9.55505
9.62427
9.66462
9.58984
9.84696
9.7858
9.7141
9.5799
9.55874
9.62719
9.72382
9.60497
9.61019
9.90259
9.83358
9.6529
9.5891
9.57094
9.58
9.59823
9.60069
9.75604
9.54721
9.58109
9.67015
9.64529
10.0669
9.794
9.86998
9.85953
10.0887
9.61111
9.5627
9.63225
9.62035
9.92181
9.68285
9.89351
9.9093
9.93687
10.0115
9.63136
9.68548
9.73714
10.0337
9.60003
9.64322
9.67964
10.0599
10.1524
9.95412
9.66961
10.0716
9.95502
9.72711
9.61477
9.62248
9.67875
10.05
9.8656
9.69108
9.63993
15.4535
12.4626
10.4098
9.81545
9.77231
9.91387
10.1101
9.78377
9.5961
9.62685
10.6097
16.909
11.4771
10.1505
10.0282
9.78323
9.85536
9.60051
9.58503
9.60864
10.9464
14.0537
11.4506
9.90044
9.52947
9.54014
9.58492
9.7099
9.77235
9.962
10.4916
10.0873
10.6405
9.94593
9.55322
9.59273
9.73959
9.77296
10.1845
9.91654
10.007
9.86463
10.5102
10.2144
9.56854
9.66442
10.0412
12.6462
16.5406
12.6479
10.7261
10.1225
10.5078
10.3799
9.70764
10.0402
12.8237
16.6307
11.6054
18.4018
12.5303
10.2412
10.5063
10.1347
9.95843
12.1611
16.7291
11.084
10.9256
12.068
16.6384
12.764
11.5265
10.0033
13.7591
15.3198
11.7763
10.0675
10.5495
10.4733
19.6727
12.5147
10.64
9.87997
11.7712
13.6672
12.8463
10.4723
10.7073
22.3623
12.9738
10.1859
9.66289
9.59518
11.5208
15.8615
14.6065
11.098
20.6887
12.8543
10.9092
9.91246
9.64696
9.64791
10.6802
12.7294
13.9625
14.2973
12.6012
10.4367
9.97866
10.6607
10.1002
10.6566
9.53121
9.55078
9.67878
9.76761
10.1805
12.6425
15.3216
20.4999
13.6779
10.6174
9.55119
9.69653
9.7533
10.2221
12.1262
17.7652
14.9718
13.7707
18.7504
12.2194
9.77124
10.2925
12.9112
16.6164
12.2315
13.5298
15.5445
12.9841
13.9536
11.72
10.2075
12.4404
16.646
13.9969
15.8799
15.0174
15.7601
11.6506
17.02
12.2887
12.9107
16.4594
13.5942
11.8287
10.666
11.0465
17.3538
25.1337
13.5661
10.2944
11.8791
12.6006
11.8347
10.5778
10.5458
10.8944
15.1823
12.9378
12.1718
10.4049
11.6534
13.5572
11.3235
10.508
11.3352
15.9863
19.1029
11.6594
10.5959
9.77859
41.9228
28.6413
31.3901
12.2898
12.6024
22.1209
11.9028
9.8835
9.62074
9.59344
19.9124
35.4634
27.8395
14.543
21.4702
12.168
9.8233
10.1045
9.87535
10.7928
9.56396
9.67954
9.76721
10.2051
12.1351
18.0659
16.2488
14.4385
19.1775
12.3881
9.80703
10.0416
10.302
11.1669
16.2322
14.9002
20.0836
38.8561
16.7994
26.4104
13.7013
10.3567
12.367
17.6697
12.3893
15.2263
20.3147
31.1974
37.1625
16.9296
25.3492
13.0878
11.5391
16.8205
15.699
17.9919
35.9164
31.0924
28.8418
45.7015
15.6977
28.3435
13.6055
17.7985
16.1825
18.7409
46.4805
65.9031
62.1004
30.6848
20.0356
20.1408
12.1099
11.3968
14.605
18.1209
42.2034
51.8064
67.3398
77.5694
19.9805
28.8187
13.621
10.1907
9.92018
32.2171
39.562
63.6605
65.4112
37.7832
42.4613
22.575
11.8612
10.8656
9.7924
9.73007
61.2189
79.9454
61.372
70.632
16.414
22.4589
12.2074
9.8465
9.73589
9.6289
9.62218
58.984
38.3105
24.305
11.7283
9.68263
10.1869
9.88052
10.779
9.56686
9.65663
9.62588
10.1268
12.0886
16.2702
17.8092
13.4658
18.4858
12.1824
9.79384
9.92729
10.1782
11.3745
14.9391
16.8708
29.5839
38.4005
19.354
28.9955
13.2488
10.344
12.264
16.2585
12.1632
18.7534
32.785
55.5721
144.305
54.3576
31.9422
14.0754
11.5498
17.828
15.0976
16.5413
32.326
65.8294
171.584
88.0441
20.226
33.1267
13.1744
18.6501
14.7734
17.9228
36.954
97.4602
345.01
134.14
58.2554
23.2943
11.9376
11.1428
13.2144
17.5841
34.0085
65.9751
207.008
167.332
55.6625
24.4555
13.0686
10.1646
9.89159
28.9429
33.4953
29.1653
65.232
83.5189
48.8361
22.5517
11.5381
10.8521
9.77468
9.71508
93.3879
88.8649
84.838
90.5902
54.1628
23.1162
12.0056
9.8515
9.70946
9.61799
9.61177
165.896
39.5463
25.4641
11.8351
9.74115
10.4805
9.9812
10.5813
9.54351
9.5931
9.72144
10.2946
12.3265
17.138
16.7873
22.0475
14.2516
10.4895
9.55407
9.66845
9.94349
11.7649
14.7642
14.8351
14.4746
15.4477
21.1724
12.0912
11.5101
9.73405
10.0802
12.3136
16.403
16.4216
20.7636
40.6005
42.1111
18.7022
38.5512
14.4733
10.033
12.2403
16.6364
15.9397
20.7396
38.7731
30.5019
17.4638
19.9123
12.2017
11.4872
11.5988
17.0953
22.4018
35.1956
35.8308
33.7733
52.4392
25.0206
13.9043
10.3075
10.1212
13.8749
14.4403
20.7252
27.6115
28.1513
54.3572
21.4208
11.983
11.3689
9.84022
9.71887
33.3272
32.803
36.8973
35.2555
21.7372
52.3012
22.4313
13.1172
9.95883
9.8383
9.63793
9.64189
102.291
96.918
85.3865
24.8798
40.952
23.0911
12.3252
10.6857
9.70368
9.63697
9.62941
9.61918
62.7333
12.9585
11.6101
10.2066
9.533
9.55354
9.62446
9.80528
9.89146
9.96359
10.997
10.0517
10.9575
9.94854
9.56614
9.62095
9.79792
10.535
13.3561
17.3752
17.7526
23.4777
14.6175
10.4686
10.1874
9.55971
9.63643
9.99569
12.7632
15.5734
13.0136
14.9501
14.4045
22.8559
12.3513
11.4623
9.7061
10.0233
12.7196
15.6077
14.0973
10.9472
13.9046
23.9998
14.2242
10.3883
10.1775
10.113
12.2419
15.5766
12.4498
12.1191
11.0187
17.3814
12.4048
11.6126
9.83114
9.71652
13.4726
13.3591
12.8667
10.496
11.9581
18.5434
13.2786
10.085
9.96471
9.66199
9.63614
13.0428
12.646
12.9139
13.9795
11.3599
17.2879
12.5885
10.7268
9.66414
9.64443
9.63546
9.63187
41.2141
37.9505
37.6767
12.5292
15.1202
11.8063
10.1696
9.78742
9.63402
9.59772
9.59577
9.60431
32.676
71.7044
29.9386
9.52709
9.52831
9.53234
9.55914
9.61852
9.67001
9.9144
10.0574
10.1298
9.53095
9.54708
9.61202
9.77268
9.75672
9.73764
10.5107
10.0241
10.5729
9.55465
9.59008
9.68558
9.73717
10.3031
9.69562
10.0762
9.84099
10.9754
9.57832
9.65428
9.63687
9.87152
9.70857
9.67226
10.0709
10.1354
10.6543
9.67475
9.69483
10.0423
9.62919
9.70016
9.66292
10.1893
10.007
9.97669
10.0185
10.1072
9.88949
9.76979
9.78706
9.85467
10.0139
9.63596
9.65173
12.939
16.6582
12.3694
10.3258
10.1074
9.75498
9.7461
9.6371
9.62162
11.2614
11.4772
16.2897
11.5986
10.2493
9.67399
9.63058
9.52565
9.52748
9.53237
9.54099
9.5631
9.60388
9.60691
9.6445
9.68143
9.52692
9.52566
9.53035
9.5365
9.55736
9.60165
9.7097
9.81517
9.85287
9.52654
9.53528
9.56828
9.63367
9.56559
9.59902
9.7129
9.91309
10.0116
9.5289
9.5388
9.56532
9.55484
9.57196
9.58522
9.69262
9.7981
9.8475
9.54648
9.59208
9.53649
9.54236
9.57006
9.63503
9.69928
9.60055
9.61049
9.5364
9.54515
9.59394
9.55489
9.57679
9.61874
9.66885
9.64016
9.63186
9.76291
9.80975
9.77936
9.67918
9.62504
9.5827
9.57465
9.56959
9.57836
9.61818
9.59268
9.93271
9.82133
9.53384
9.54533
9.55607
9.57735
9.58701
9.60826
9.63655
9.52963
9.53496
9.54527
9.55615
9.57256
9.60195
9.65124
9.53693
9.548
9.54723
9.56246
9.5748
9.61497
9.64037
9.53744
9.53787
9.54097
9.55462
9.57058
9.5975
9.61199
9.53325
9.53952
9.54109
9.56744
9.57706
9.57661
9.59065
9.5839
9.55951
9.53969
9.55078
9.56446
9.57418
9.58199
14.1376
16.1957
16.4859
23.2398
37.8279
37.3714
41.5356
39.07
29.4116
77.2847
36.6806
20.9657
34.7394
67.9093
45.7786
274.576
44.0192
38.4907
37.8167
62.2143
72.5853
147.087
52.9477
27.1946
28.1948
32.108
25.3013
27.4294
458.304
36.3134
26.1795
39.6611
203.581
61.331
41.9454
39.9573
39.6851
65.3396
110.815
173.459
161.487
88.8545
68.5703
92.7824
82.6556
187.085
325.196
253.583
49.959
32.3321
85.2726
33.4623
70.2769
53.7795
83.4351
68.8205
89.2639
63.1819
291.156
114.166
42.3114
37.6069
29.8796
40.286
64.4719
64.9721
39.0397
24.2535
82.4552
32.5834
34.6495
74.0182
52.4762
86.0524
67.2455
79.9801
27.6811
49.6136
59.9695
83.1356
67.1768
84.1145
54.1181
144.666
79.679
73.5164
34.6297
109.905
129.497
50.3833
68.0884
75.0646
90.4792
78.64
91.3765
73.1228
71.009
50.4732
85.6802
227.3
82.4662
57.3413
30.7779
132.469
185.483
36.9914
53.7678
184.79
29.2391
31.9237
144.136
27.0074
16.2758
145.326
313.047
182.816
33.9861
26.2181
23.0277
30.9153
326.231
235.033
219.119
36.3678
49.2642
65.8223
73.7897
200.979
107.274
19.8638
43.9772
57.5421
79.0992
100.599
39.8334
66.323
85.2782
32.435
41.2625
116.079
94.2606
35.4276
77.6107
48.6485
32.643
37.7588
97.7294
72.6269
128.943
25.3386
82.5094
60.9149
67.9156
104.484
87.361
107.59
81.8694
80.5799
85.377
90.9357
238.684
91.2542
69.2482
64.8991
199.946
64.6253
28.7713
14.4007
56.9233
22.6668
17.433
84.2032
74.7057
95.1902
27.9561
37.126
70.0366
70.7078
73.0439
29.1854
32.656
60.9777
80.1331
72.7716
68.932
55.5823
66.5033
78.5232
57.5619
66.8326
28.7086
40.5666
78.4503
40.2643
15.1557
10.5999
15.6025
24.9135
43.632
26.0659
46.0351
14.6477
10.5155
15.1178
23.5829
39.9293
25.1562
46.8101
15.1611
11.14
14.7365
22.0378
50.4292
28.5485
30.7773
20.6678
30.0479
19.8135
34.6328
36.818
72.2968
34.1542
48.2853
32.4541
41.0667
36.3878
36.4421
38.9327
102.674
42.5971
61.3737
84.7604
32.6746
45.6561
75.444
168.741
50.123
30.6566
37.8294
123.176
121.381
152.104
47.1879
92.4444
32.3455
83.9713
33.5195
60.0735
61.7098
265.57
145.307
65.4876
66.8232
85.7631
60.2913
96.4604
149.859
40.5199
78.7639
37.9081
184.791
156.124
213.222
53.4234
95.1925
66.8503
35.7417
273.27
226.434
100.95
32.111
114.64
63.4881
65.8908
130.084
65.0285
113.014
146.122
38.852
27.9009
28.2288
95.0442
31.5178
36.2786
44.5281
56.2413
92.9357
52.1221
477.266
62.0471
92.3687
71.4499
85.4713
45.9558
49.7206
70.4651
94.5226
42.2345
683.524
140.613
62.2059
65.6229
58.0123
28.4339
37.4959
35.6626
118.2
31.3359
23.1092
31.1498
100.165
92.0437
42.5809
39.4283
120.161
31.1465
40.738
39.1783
27.5559
38.0195
79.736
272.511
29.7552
39.9444
33.7186
32.5218
104.713
160.61
60.8428
19.6907
36.3717
25.5561
40.3938
76.7672
74.1989
202.83
35.7128
44.4174
25.0615
89.821
170.087
100.874
386.626
82.1737
53.8186
106.38
171.689
178.478
53.9651
24.4485
33.5369
33.7755
36.8999
62.5875
63.7908
31.6425
27.4004
33.8217
88.2709
92.7361
81.7173
89.2534
81.5278
349.465
88.7584
77.7493
185.554
93.4194
35.3497
59.7715
78.3699
33.2686
37.571
57.1276
58.6726
31.027
37.6757
86.6577
47.6376
89.442
139.741
246.727
82.3066
56.0576
63.392
99.9513
111.345
45.848
57.844
55.581
31.2712
34.2043
84.1608
257.356
80.0066
243.503
133.735
183.657
93.5216
58.9085
119.813
201.607
41.39
49.6648
70.8985
63.9065
30.4966
37.0341
24.3696
44.886
10.8671
15.7434
10.6585
15.6432
33.9254
23.197
42.9708
10.5941
14.9888
10.5945
15.0612
75.5067
49.1138
80.2569
73.0467
31.7965
29.6821
39.9959
41.9642
44.0525
82.8102
76.6962
27.6081
43.1023
36.1378
34.8888
34.8932
28.5305
39.3079
11.8098
13.7881
17.7209
16.6997
94.6613
86.8519
80.1905
58.0721
109.9
95.6568
78.4838
75.2345
62.735
105.163
48.3716
59.8477
39.8959
37.5253
66.652
33.7112
113.169
80.31
28.6246
27.2416
22.1269
44.6861
23.0322
42.038
25.4164
37.729
12.0647
20.0264
33.1797
47.4858
38.4175
24.8133
39.1346
12.0386
17.2171
38.6566
25.7812
29.1851
87.4515
59.8565
60.7914
90.1556
65.7789
55.6189
88.0188
65.2691
68.1396
91.2018
76.1457
51.5819
92.3859
53.8318
63.8759
87.6454
77.5052
58.6801
95.6399
58.3579
55.977
59.4869
55.8499
39.6466
63.0788
48.9376
62.0042
41.4432
58.059
52.1787
68.5513
40.3528
69.2982
63.161
54.3494
47.0432
67.8099
504.554
75.6651
58.6482
60.2208
50.6807
85.1579
305.038
57.1158
55.2558
79.6924
55.9306
57.041
230.589
59.1737
55.1023
78.3549
55.7882
88.9474
70.9409
380.174
57.6682
87.8771
137.3
63.3236
89.6681
98.5184
186.888
66.9224
63.2626
149.875
52.4667
86.3254
294.527
187.163
85.4566
52.6571
172.494
160.361
67.8162
60.6622
151.554
56.5272
177.15
207.611
159.96
90.3168
58.8116
153.939
57.5261
112.823
208.389
89.1443
104.528
99.5148
262.967
107.393
104.4
253.794
103.676
144.651
184.613
304.702
376.927
184.796
265.902
147.556
385.563
66.2676
574.586
108.407
147.141
101.197
130.557
58.2405
143.99
58.1917
83.1329
120.522
57.9808
92.634
104.879
144.542
67.598
60.9615
163.629
60.0624
111.481
111.96
142.653
88.3535
58.476
105.585
57.1584
105.456
123.7
186.743
74.2815
82.9041
101.795
84.4357
114.072
161.543
164.869
91.7559
262.206
93.4565
125.685
166.432
344.422
116.608
115.21
170.638
168.081
120.981
254.39
121.192
154.942
65.0234
65.2404
61.2889
522.897
62.5177
426.671
64.3748
75.1306
316.076
242.214
77.4795
380.782
56.3675
83.0009
130.653
55.1827
134.464
139.159
377.549
66.5874
57.838
56.6943
228.077
175.735
83.9485
52.4766
127.954
53.4436
236.528
68.3028
157.028
300.103
128.503
212.268
195.687
143.95
422.907
294.532
149.758
2407.85
132.956
670.012
166.751
787.319
127.172
121.144
112.13
79.4928
151.553
79.1046
111.039
125.756
129.272
62.013
607.866
64.3718
114.596
53.5269
92.1176
58.9845
92.4847
58.225
83.8821
83.8177
84.4968
86.3559
48.8983
59.005
87.7794
53.6296
267.784
57.5454
68.321
81.1106
78.4965
50.5757
85.9647
87.371
92.6973
89.9962
67.455
64.9012
43.1276
73.9828
57.3482
47.1889
48.7915
45.0576
43.4762
87.2071
100.582
47.2881
42.0518
95.5668
252.459
47.2734
89.5098
269.101
157.645
159.536
149.41
142.884
74.8466
83.3065
148.539
150.223
226.635
56.0527
77.2607
145.124
93.6869
52.0067
236.416
79.4626
73.4177
90.7954
53.8899
79.1195
64.8461
237.947
124.4
90.5807
111.233
86.4879
50.4139
77.2811
739.191
53.9172
250.509
67.0657
58.0947
41.9087
94.8584
350.484
67.1757
266.33
75.8038
48.618
45.5793
553.45
346.698
75.5014
389.388
63.8646
47.4707
168.173
100.671
242.589
64.8154
47.3375
135.5
194.268
500.36
104.143
131.89
135.598
189.642
267.172
123.643
134.96
134.817
148.483
78.7319
65.1123
68.3527
115.647
121.296
65.9189
95.6317
86.952
174.653
103.069
346.637
84.0459
114.687
90.9975
108.104
343.713
113.381
348.712
87.1492
117.964
93.5444
190.299
299.947
106.668
154.512
113.055
124.841
59.8116
75.0907
28.5062
39.3587
52.0119
85.1117
22.8577
65.3795
106.364
50.1692
59.9643
69.2267
95.3734
67.3592
120.834
181.881
53.5472
60.9342
57.7198
137.076
65.3411
62.5826
124.096
53.3575
76.4291
64.8968
156.517
58.9414
80.5975
135.794
54.2926
207.2
72.9407
87.743
68.6249
342.129
57.5963
54.4113
209.754
83.8953
87.5866
80.4943
356.241
55.9216
58.4209
62.6703
58.3067
156.115
62.7636
66.4769
137.753
58.8699
201.27
71.8485
86.182
65.5375
169.327
59.9972
58.9952
113.85
85.811
77.5568
79.477
156.66
57.1948
97.8825
164.516
95.8252
62.4828
140.154
91.5787
316.875
74.5363
53.0856
152.127
104.062
142.706
160.22
157.032
72.4342
98.8683
37.8718
80.9495
62.7345
104.38
47.4819
193.713
322.864
84.2441
266.388
553.92
80.7669
363.891
80.6258
81.3441
99.823
134.516
332.004
93.2118
182.571
120.875
90.7848
179.938
144.95
74.1598
46.7126
87.3989
248.579
182.811
70.601
87.7621
268.902
113.766
71.4319
78.3848
102.242
322.333
121.923
232.174
73.5084
56.6969
86.2691
104.011
127.56
69.8626
92.4959
106.642
69.797
73.6554
24.8363
72.6908
97.1041
428.129
98.829
181.58
80.5458
70.8758
97.2924
87.1123
78.7883
56.0058
99.3575
90.5773
102.574
93.051
89.4114
69.2789
122.748
62.016
60.8971
73.1847
276.62
62.7722
72.3336
281.752
76.1682
57.0493
73.2095
277.202
53.8536
96.1649
68.157
77.6638
62.2897
74.4023
85.1273
93.2052
87.0191
113.2
96.8896
63.9543
280.415
58.6981
58.7342
79.5788
144.978
65.0496
59.9041
99.8543
73.1723
52.518
76.1487
126.784
55.6988
154.215
172.902
59.0215
48.3705
57.1386
56.9837
49.1711
51.158
122.041
56.6233
66.0421
215.226
101.644
47.0005
165.031
334.802
61.9683
65.6767
98.082
65.3929
60.8564
16.6538
15.6821
47.9543
31.9829
17.3347
10.7663
16.9267
40.6948
27.1173
31.0207
39.4237
29.3816
31.3
15.6542
11.2003
14.4989
30.8051
37.1091
36.8306
28.334
14.8957
10.9627
15.2532
37.0797
42.6897
29.97
39.0432
16.9393
10.722
15.7085
37.6227
39.305
32.3438
32.4946
15.0627
11.2573
15.2053
35.8115
33.1434
31.0433
40.5055
15.7523
10.6694
16.1721
25.1513
47.57
33.8468
41.0886
15.6037
45.3405
17.8131
37.4301
20.5877
35.3331
45.8759
18.8306
50.5099
25.5271
31.8928
18.4416
34.8099
40.0407
35.5793
38.9372
30.0718
54.8705
42.7401
21.8939
19.8351
61.7555
21.0567
52.9906
60.3434
48.3839
29.023
49.0426
35.0872
123.101
111.799
132.069
49.7789
34.9544
59.3442
17.6561
48.3456
40.11
65.7836
47.3461
34.1439
35.3348
17.6296
42.3831
33.7886
37.0619
40.8217
35.8317
29.031
119.821
35.2441
36.7156
42.7557
46.2686
35.8687
45.1653
18.9105
43.6544
36.2481
56.3543
144.038
60.6602
64.1264
83.4332
60.8534
83.043
118.516
61.8252
67.4885
134.819
210.741
104.868
96.8692
62.4614
30.9891
41.9148
39.4863
192.16
39.401
31.0092
34.2532
382.854
62.2693
64.8037
79.9316
57.9283
115.967
166.747
135.084
245.275
125.118
140.027
114.399
34.382
33.2671
20.4771
37.6018
50.2795
41.3232
69.9565
18.4813
23.1804
18.7317
50.4181
46.4639
69.5317
78.9026
52.7416
176.977
75.1103
81.6459
60.735
60.3073
70.0321
276.877
148.539
56.3547
349.12
253.95
63.627
49.9567
106.866
54.0365
131.243
47.0801
39.7689
43.1106
37.3517
38.1912
29.8675
28.692
174.932
105.479
121.462
120.494
94.2025
104.563
40.1551
32.725
37.2173
40.3319
35.9678
30.4009
27.2945
371.092
105.568
112.321
124.647
147.239
128.153
36.9476
50.7001
27.5942
38.629
37.3702
28.0394
23.9793
89.0874
120.331
100.052
80.1737
577.421
71.8141
288.782
81.5513
78.9767
156.933
159.104
85.6713
101.634
34.0297
26.1417
35.0437
32.7997
33.6857
30.7129
25.3416
32.9365
48.2908
58.7927
42.8285
61.9232
64.8205
60.5289
28.1388
32.4587
29.8126
10.7745
15.7136
10.6396
15.56
50.7969
37.5874
38.576
10.8009
16.8675
11.0312
16.5457
41.9736
87.3344
32.6529
18.1057
19.2432
33.7978
40.2431
92.7089
86.1473
221.805
76.385
61.228
195.172
96.7673
71.8166
407.788
56.4719
90.7761
82.7445
68.8807
47.2212
38.6563
67.7277
30.6396
25.5726
20.4501
28.398
20.1765
62.7189
33.6137
16.5383
57.1851
20.068
82.5014
53.5566
59.2955
64.1518
41.6348
59.3086
62.6955
24.3982
78.7215
56.5976
90.2834
137.456
90.4122
155.969
48.3028
28.2822
27.5251
68.7706
37.0316
72.7709
59.7484
66.8008
26.6749
64.7302
68.7438
34.749
68.5515
67.1299
89.2005
137.358
92.3222
135.015
83.1903
100.212
104.073
98.6023
93.3734
132.91
62.897
56.2113
73.834
87.5298
59.536
60.6797
48.2208
26.6159
52.343
49.4786
26.9676
58.3237
49.7375
168.059
152.951
163.051
163.878
69.1128
57.6534
65.4429
59.3114
43.5907
20.8071
27.2942
71.5278
22.3501
61.3015
68.5123
166.072
153.334
151.79
164.809
79.8908
95.634
87.8003
81.8821
69.7054
61.9768
65.8977
83.9315
87.8054
70.4899
146.638
166.838
86.5711
80.2405
435.887
69.5472
89.7817
106.085
122.286
75.8231
81.0054
64.2174
39.6178
67.6589
82.2439
71.3253
62.8775
112.019
80.4131
125.658
100.466
196.31
72.1571
120.39
128.531
73.5226
90.8213
102.2
173.412
85.279
71.7764
163.385
143.896
60.9342
91.7337
102.837
59.4027
104.964
115.534
268.022
81.1312
98.5558
98.046
91.5425
114.97
370.669
159.764
91.5208
109.055
290.442
83.1709
130.339
324.577
175.009
339.314
215.058
72.1585
85.1722
58.2671
177.56
42.3188
99.4764
110.896
69.0316
67.4019
26.0587
84.7442
28.1069
92.2241
63.0634
71.3525
68.7989
63.9376
120.038
50.6625
109.774
62.1541
180.559
142.683
216.209
432.32
106.94
144.206
159.67
137.662
153.768
291.306
23.4743
23.702
57.5674
50.4374
34.9867
20.4115
58.9914
73.6078
57.8942
34.883
53.205
49.0128
22.9754
69.6432
38.655
52.2578
25.8311
51.1381
32.1008
17.3044
60.4378
30.021
52.7969
29.8024
54.5749
19.9131
65.4806
31.4291
58.0514
69.6814
71.3543
63.632
330.716
66.153
80.4038
62.7061
59.9708
182.352
603.886
66.0829
58.0591
46.7347
218.59
47.2097
177.718
65.0188
111.251
283.963
370.662
210.973
225.963
100.894
59.7428
59.4284
99.781
58.1899
111.254
79.4397
104.212
66.4025
66.8518
116.832
59.7156
198.454
60.3416
104.277
77.7979
272.579
58.9223
93.9479
70.1435
87.8582
253.411
72.5785
80.1335
299.71
135.858
274.345
77.5903
64.7674
82.1855
228.143
172.562
52.4242
78.7803
196.358
120.74
127.939
98.2975
69.9248
111.461
126.709
107.827
145.397
141.977
131.912
54.0848
73.5026
131.491
52.8901
85.8378
133.327
63.5722
55.2124
212.808
60.784
80.9806
98.123
106.873
294.073
103.996
85.1808
141.597
159.431
113.062
128.282
111.106
144.035
97.51
134.479
40.3321
61.861
46.3852
65.7912
55.4164
128.015
190.13
151.205
105.587
101.58
218.655
55.25
187.035
43.0474
54.2986
66.0754
51.6084
56.0623
22.9865
74.4995
51.6072
24.7679
112.07
99.78
307.03
127.095
98.7985
121.396
165.557
107.706
102.82
347.094
113.045
101.701
122.015
258.279
50.5246
54.1137
18.5964
26.5946
66.7627
57.0555
16.0729
45.3527
66.4305
21.33
23.4388
73.592
46.1681
22.5725
47.0494
69.9782
28.4703
15.9634
62.1294
48.1362
15.9222
189.33
105.255
373.036
114.608
96.841
168.229
347.089
148.865
263.779
262.67
119.016
148.867
153.888
126.696
58.8153
72.6403
60.4688
61.326
85.3256
68.2465
128.022
64.4164
52.8562
74.3138
53.6567
103.541
62.576
152.404
110.893
71.524
63.5699
109.066
124.017
61.7172
147.336
121.169
103.726
1188.47
249.807
480.944
65.2765
76.9287
22.8965
21.3543
60.9766
61.1135
30.3237
62.4685
86.8108
73.7307
63.1321
89.0856
103.266
55.0684
61.0825
40.6035
60.3979
90.6157
38.8112
76.957
137.599
114.812
127.5
117.96
112.807
75.3554
66.3695
32.388
58.6478
60.3279
107.512
69.2353
99.4656
110.39
82.6343
52.7097
115.294
117.609
54.7849
170.156
229.244
87.9027
68.048
72.151
178.259
100.712
245.591
306.079
145.437
174.203
85.1602
214.269
143.404
72.326
99.8512
82.0825
110.88
100.285
81.915
148.991
90.5567
550.644
129.511
98.4599
72.9893
95.992
96.5158
793.754
106.663
124.554
123.683
132.415
96.4954
139.676
112.958
97.8145
167.886
190.732
55.1491
61.3121
63.1142
62.0945
87.1985
91.7876
208.355
103.82
117.834
105.976
199.789
182.281
118.827
75.1811
98.5175
69.3647
126.294
74.4022
122.189
18.9163
43.2392
21.6147
31.8381
20.2826
91.6031
89.0781
221.649
70.9625
51.5585
94.956
238.111
69.8871
70.6853
31.3856
23.8935
62.7127
78.028
33.1005
76.1927
44.6219
30.3188
43.682
37.3744
80.7616
23.9269
68.015
32.0447
26.1239
26.2249
70.8189
88.9113
33.0127
86.4382
68.1459
53.6931
37.0457
71.4915
92.3285
54.6374
81.3255
91.0493
92.6495
62.3021
58.6229
60.4777
63.4375
79.8429
81.8975
90.2406
80.4612
101.256
65.2611
59.8614
68.8452
203.641
71.8448
65.6378
272.948
60.7435
159.351
79.977
299.383
70.6775
61.8718
76.6882
68.4805
136.915
88.7656
72.1484
108.428
57.9722
36.7666
46.5908
46.7122
87.6615
61.1761
122.357
142.771
58.9702
68.8831
33.6611
70.2643
314.157
160.19
67.9936
45.5729
46.2079
60.3681
69.5604
71.4424
62.0655
68.6505
30.3775
33.5999
60.406
164.17
680.995
79.9652
193.698
78.3458
69.8607
55.9002
81.5928
90.4359
185.756
124.884
96.8839
82.7549
165.195
80.1991
284.427
113.805
130.19
95.2965
83.6542
149.517
72.4453
150.858
111.219
69.3517
67.5686
66.4987
71.6846
105.307
187.384
246.453
61.4582
150.118
82.749
115.315
85.9538
187.408
56.5495
64.6473
94.4528
74.4546
111.07
187.997
236.331
152.847
77.6114
85.3869
83.4588
102.564
59.8704
169.836
207.752
92.482
78.6621
65.6422
83.6795
70.4721
93.6232
106.317
80.159
52.3979
67.5496
65.3156
172.576
238.95
379.628
121.586
107.641
109.394
199.204
381.407
97.9771
75.8215
79.6434
99.4337
103.325
227.712
119.039
95.4731
58.4925
59.4316
98.6623
79.2716
113.296
127.961
145.301
85.6548
102.486
134.224
78.2665
120.045
102.842
127.482
85.3803
94.0338
132.774
78.4511
112.675
105.496
141.791
101.395
83.1406
131.575
85.8656
155.434
85.5448
83.5956
152.961
92.5497
58.6894
97.6346
50.2651
59.188
108.518
92.6585
72.6309
90.0797
77.2153
79.1814
105.366
73.5002
55.0989
63.1818
84.3408
79.8741
52.0191
64.2689
84.585
74.2766
140.724
74.0357
87.2663
111.411
75.7834
100.562
94.8902
104.499
92.3666
98.3182
99.984
114.736
92.4198
105.096
100.79
94.7967
139.816
98.1106
93.4141
74.8533
90.5653
319.377
1188.67
92.399
74.2179
78.6015
104.691
82.8332
89.0318
74.6685
388.121
89.7519
680.898
77.7683
89.4152
75.9521
76.4726
81.4306
73.5029
111.472
61.0192
56.0501
57.3604
59.9515
43.0662
42.3987
120.963
108.657
257.279
179.004
434.098
150.313
240.366
105.831
129.648
174.699
450.718
323.919
72.9234
57.0091
70.5632
41.0185
75.3882
51.7882
79.3303
74.3329
95.1288
61.0564
74.4493
53.5352
46.5162
60.2197
644.252
87.1467
67.8959
74.6836
86.6437
135.288
70.2876
220.692
86.6362
81.3226
50.7745
47.3625
50.3383
36.017
271.756
80.602
100.34
107.385
83.9226
68.5269
55.9137
117.311
103.535
140.976
125.471
498.576
101.945
114.761
104.397
95.6006
115.681
460.961
297.153
116.427
830.631
131.119
522.408
344.182
86.3197
48.3799
57.1802
116.54
131.394
78.7463
234.401
113.373
115.859
58.1512
88.1544
117.479
75.8919
92.8509
126.686
100.172
61.2241
99.9179
65.4769
72.664
105.883
88.729
70.9638
66.7805
109.836
185.036
285.265
92.3486
104.582
122.233
80.4823
88.3453
96.2226
68.3219
184.193
86.2834
116.44
84.4224
60.8544
90.8664
69.3037
75.4796
71.6547
24.8211
107.571
82.722
74.6708
37.4252
59.7124
478.933
78.1056
65.1626
64.0214
49.3026
69.6085
287.452
57.8285
80.3664
47.3667
48.7018
69.9255
96.4793
62.999
71.9607
68.3916
60.1763
50.0551
43.9357
95.0716
172.516
253.079
103.291
103.534
283.193
66.1884
96.0562
93.8232
128.762
105.439
71.6526
67.2294
112.744
105.872
160.343
112.14
70.7797
87.5519
86.0046
94.8664
115.708
216.394
124.336
112.485
248.658
121.452
76.6382
161.668
81.6806
272.777
80.9699
78.9346
196.427
78.9002
77.902
189.567
76.6643
108.801
137.327
94.1986
94.0158
127.87
117.595
117.532
105.869
84.2521
125.455
118.379
174.891
151.889
97.3407
78.6566
81.2522
218.566
69.1474
112.185
120.713
118.877
169.688
128.092
121.479
200.598
148.4
81.939
120.917
139.184
163.665
103.926
61.4093
65.4242
42.2528
145.134
85.396
61.1084
82.713
46.2985
49.4261
35.2603
80.79
62.6534
67.551
63.1327
75.7851
59.8608
73.233
64.6989
66.0708
37.3026
30.5233
93.5935
58.714
85.0378
62.1132
60.7598
29.1886
53.633
78.3225
51.9836
73.2574
63.7336
69.7917
34.8044
31.2852
91.015
223.216
64.5604
94.3583
86.6239
182.226
54.8266
92.4457
89.7531
223.656
59.5011
54.0976
182.856
86.9967
99.2882
257.486
242.37
96.5499
94.5144
82.2397
91.8294
136.852
63.5406
91.0314
90.9519
223.087
67.7706
90.9962
81.7297
119.063
50.391
50.5459
161.935
90.8851
88.2579
84.3942
85.0017
456.808
267.619
82.3458
94.0403
93.9835
231.322
87.6603
96.9853
228.635
75.3793
104.628
104.447
88.8072
82.7677
68.4869
57.2739
210.51
67.9013
87.4332
67.5432
56.3582
47.8553
79.7928
141.113
98.6637
129.751
171.989
90.9223
146.802
406.806
102.902
160.913
84.5658
107.833
84.0281
172.619
126.931
96.3026
200.161
110.633
94.0758
52.6314
89.9419
68.0442
440.081
93.5187
87.8478
79.0447
59.7962
41.1052
40.9874
93.7281
81.0852
88.633
236.382
80.4682
84.8042
83.713
92.1273
465.953
93.124
164.025
97.5228
160.908
89.7905
54.1234
47.2564
87.0742
46.0749
91.5408
81.7994
90.5135
71.9201
85.274
75.1443
94.9643
83.0166
80.3172
71.6931
53.8333
95.2864
59.78
83.5585
85.6287
234.106
69.6207
84.7937
92.844
58.5419
235.106
86.2224
104.713
443.206
87.0638
126.172
83.6563
103.984
253.282
87.4674
96.2594
173.033
79.7522
45.4344
46.5719
75.2811
82.1601
79.9457
41.7363
58.0283
81.8697
41.7349
82.4691
170.455
166.326
165.186
148.881
158.462
161.493
80.392
47.5511
81.4975
47.4147
81.288
39.4146
56.8231
70.4775
40.8609
74.9931
81.0276
167.349
161.197
80.5854
44.1513
43.3513
73.8656
91.8968
135.474
152.418
79.7648
73.8617
62.8041
75.849
38.1678
55.2653
70.7593
38.1743
72.1485
78.928
72.2354
43.8565
41.5224
66.946
97.5683
156.861
68.7756
41.8498
38.457
83.4381
38.7575
69.6748
71.6893
74.5208
79.283
49.8145
62.5241
48.4471
78.8613
80.4641
163.037
110.682
145.601
120.094
163.096
147.142
162.476
125.904
71.4586
43.9125
42.1
83.4228
39.7552
78.1068
71.6085
71.9578
47.6724
61.8386
70.1983
47.698
78.828
70.4202
159.497
97.9793
117.498
116.493
87.0009
105.713
90.1547
108.201
81.2048
94.5772
89.467
83.8603
87.0095
93.3125
106.36
87.1653
69.6329
40.0906
37.0973
91.2334
35.589
80.064
75.2625
73.1676
130.065
77.2438
109.052
70.2847
92.8966
76.6447
87.5477
75.0611
49.1587
62.0278
72.7591
80.9232
45.3703
77.1052
72.5298
91.3415
102.752
73.4672
89.4202
161.199
89.9903
84.0063
93.0342
90.07
235.444
90.8062
82.6669
82.1546
91.3554
86.3858
83.159
78.0917
70.2679
88.7975
115.541
118.4
81.9909
75.3087
65.3647
135.197
87.4914
111.586
84.2639
76.3947
96.734
80.0216
197.264
116.772
178.922
118.834
77.8985
135.127
75.6271
93.685
101.911
177.912
74.6686
76.1562
125.865
72.6368
174.844
80.3252
179.658
69.4372
87.0146
171.187
76.9557
96.0762
100.497
178.774
73.4084
89.3439
168.2
78.8071
196.35
116.933
179.47
116.033
77.6624
185.901
77.9739
184.185
84.2064
180.179
79.9817
88.6182
186.772
78.0537
93.5706
178.17
179.124
76.1591
90.8539
184.155
85.6635
81.2347
140.341
149.997
85.0653
82.587
129.13
84.6393
114.577
215.088
253.063
115.896
84.5044
122.623
83.6871
124.08
105.868
217.5
114.182
81.4524
118.212
90.4713
300.605
96.3475
250.376
84.2063
93.229
134.549
73.2442
76.6294
129.068
158.935
78.4242
75.337
147.625
89.2964
109.654
117.555
194.978
109.082
90.3905
134.54
77.241
136.06
108.055
113.99
106.959
83.0239
129.588
89.4537
145.178
100.035
194.296
92.3415
96.0756
142.279
306.811
337.452
86.4536
93.7523
128.113
92.4769
121.245
159.828
102.133
89.2332
92.7431
998.404
101.786
135.902
240.664
96.5915
100.885
96.9747
223.868
1843.02
114.824
161.572
234.374
293.367
886.45
216.418
191.544
103.525
86.9004
81.9262
336.119
263.626
335.72
113.973
147.962
453.741
330.717
233.937
105.275
100.024
96.6255
195.137
453.486
529.18
162.72
217.845
195.57
200.68
583.181
264.744
401.638
267.781
2292.66
422.338
202.949
165.68
323.994
203.545
2018.23
341.534
156.131
226.254
683.935
161.815
224.812
213.195
357.142
167.277
289.15
302.239
119.73
133.311
127.092
64.7311
128.424
68.2649
138.163
153.297
93.646
128.777
76.85
144.302
69.7514
215.369
127.121
108.794
73.867
146.954
108.192
253.155
152.475
116.257
92.3756
62.2486
88.5569
116.931
127.239
86.1813
68.7346
122.605
43.072
120.454
100.217
128.296
47.1036
84.2656
117.838
48.7858
118.162
79.2703
123.82
76.4428
57.5485
121.818
89.0506
99.068
136.58
128.5
82.601
91.851
144.226
91.3225
113.454
176.911
138.919
92.9882
108.961
151.108
86.0771
124.194
93.2164
162.895
79.5453
113.001
147.383
83.9895
127.965
99.0223
137.388
84.8812
100.612
146.636
90.8627
95.0118
123.898
121.397
85.8293