/*--------------------------------*- C++ -*----------------------------------*\
  =========                 |
  \\      /  F ield         | OpenFOAM: The Open Source CFD Toolbox
   \\    /   O peration     | Website:  https://openfoam.org
    \\  /    A nd           | Version:  10
     \\/     M anipulation  |
\*---------------------------------------------------------------------------*/
FoamFile
{
    format      ascii;
    class       volScalarField;
    location    "0.1";
    object      omega_0;
}
// * * * * * * * * * * * * * * * * * * * * * * * * * * * * * * * * * * * * * //

dimensions      [0 0 -1 0 0 0 0];

internalField   nonuniform List<scalar> 
115093
(
9.52851
9.53186
9.5337
9.53879
9.5383
9.55944
9.58512
9.6238
9.53242
9.52939
9.5328
9.53441
9.54086
9.55965
9.58854
9.63251
9.52991
9.52877
9.53702
9.53751
9.53891
9.55677
9.58396
9.60122
9.53233
9.56144
9.5371
9.54593
9.5409
9.56435
9.58795
9.59954
9.60548
9.57272
9.54469
9.56071
9.57565
9.58632
9.53374
9.54041
9.55966
9.54448
9.57297
9.60139
9.7185
9.64821
9.54664
9.58575
9.54329
9.54304
9.55971
9.62184
9.67167
9.57699
9.54042
9.60509
9.54453
9.53882
9.55901
9.62717
9.66708
9.59376
9.8493
9.78904
9.7174
9.58381
9.56254
9.62998
9.72628
9.60865
9.61376
9.90495
9.83611
9.6565
9.59284
9.57499
9.58375
9.60195
9.60429
9.75906
9.5516
9.58526
9.67379
9.6489
10.0676
9.79595
9.87052
9.85949
10.0854
9.615
9.56687
9.63592
9.62449
9.92452
9.68506
9.89632
9.90935
9.93643
10.0097
9.63494
9.68885
9.74027
10.0342
9.6035
9.64595
9.68241
10.0597
10.1517
9.95447
9.6731
10.0725
9.95727
9.73025
9.61828
9.62549
9.68154
10.0504
9.86833
9.69437
9.64366
15.4654
12.4603
10.4099
9.81761
9.7737
9.91627
10.1083
9.7864
9.60031
9.6308
10.6064
16.9201
11.4761
10.1511
10.0298
9.78512
9.85684
9.60443
9.58906
9.61268
10.946
14.0426
11.4482
9.90321
9.53392
9.5445
9.58883
9.71298
9.77496
9.96261
10.4865
10.0862
10.6327
9.94708
9.55754
9.59675
9.74275
9.77609
10.184
9.91955
10.005
9.86636
10.5041
10.2128
9.57264
9.66805
10.0443
12.645
16.5605
12.6423
10.7201
10.1218
10.5026
10.3764
9.71109
10.0426
12.8199
16.6352
11.5938
18.4101
12.5239
10.2417
10.5002
10.1337
9.95998
12.1603
16.7371
11.0856
10.9134
12.0481
16.6437
12.7579
11.5149
10.0044
13.7642
15.324
11.7717
10.071
10.5432
10.4716
19.6785
12.5052
10.6382
9.88286
11.7691
13.6645
12.8436
10.4743
10.7011
22.3613
12.9668
10.1883
9.66678
9.59928
11.5114
15.8607
14.6032
11.0998
20.706
12.8513
10.9032
9.91448
9.6509
9.65184
10.6728
12.7185
13.9585
14.283
12.5961
10.4366
9.97896
10.6527
10.0989
10.6481
9.53568
9.55507
9.6825
9.77084
10.1822
12.6418
15.3308
20.4938
13.6662
10.6141
9.55545
9.70004
9.75674
10.2247
12.1226
17.7675
14.9409
13.7366
18.7279
12.2156
9.77451
10.2936
12.9069
16.6256
12.2156
13.5295
15.5174
12.9694
13.9327
11.7162
10.2093
12.4387
16.6554
13.9917
15.8558
14.9964
15.7343
11.6376
17.0267
12.2835
12.9065
16.4713
13.5878
11.8161
10.6589
11.0359
17.3456
25.1353
13.5522
10.2915
11.8728
12.5975
11.8231
10.5729
10.5397
10.8863
15.1749
12.9275
12.1577
10.4031
11.6417
13.5414
11.312
10.5032
11.3246
15.9725
19.1104
11.6523
10.5924
9.78221
41.9496
28.6077
31.4451
12.2839
12.5876
22.1235
11.8974
9.88642
9.62459
9.59753
19.8456
35.3716
27.8609
14.5326
21.4884
12.164
9.82702
10.0991
9.87678
10.7834
9.56819
9.68311
9.76999
10.206
12.1304
18.0646
16.2054
14.3999
19.1504
12.3862
9.80987
10.0434
10.3019
11.1649
16.2431
14.8829
20.0928
38.9875
16.7688
26.4344
13.6873
10.3575
12.3652
17.6795
12.3815
15.2174
20.3222
31.2726
37.1937
16.9137
25.336
13.072
11.5398
16.8269
15.6842
17.9966
35.9652
31.1069
28.865
45.8162
15.6597
28.3496
13.592
17.8071
16.171
18.7455
46.5367
66.1643
62.2305
30.6726
20.0024
20.1229
12.1066
11.3934
14.6009
18.128
42.233
51.8959
67.5475
77.8068
19.9629
28.8214
13.6044
10.1887
9.9224
32.2417
39.5678
63.8923
65.7021
37.7369
42.5847
22.5912
11.8565
10.8582
9.79526
9.73367
61.4591
80.1738
61.5153
70.8682
16.3983
22.453
12.1981
9.84769
9.73824
9.63295
9.62651
58.976
38.4169
24.3179
11.7244
9.68649
10.181
9.88217
10.77
9.57109
9.6603
9.62945
10.1269
12.0817
16.2541
17.7994
13.441
18.4798
12.1812
9.79675
9.92959
10.1775
11.3694
14.9389
16.8623
29.6387
38.4374
19.3132
29.0043
13.236
10.345
12.2629
16.2626
12.1654
18.7363
32.8181
55.7313
144.992
54.4169
31.8875
14.0507
11.5506
17.8156
15.0734
16.5472
32.3526
66.0702
172.398
88.0837
20.1705
33.0612
13.162
18.6454
14.7646
17.9307
36.9037
97.8767
345.811
134.218
58.4767
23.3047
11.9341
11.1408
13.2088
17.5916
33.9937
66.0932
207.76
167.86
55.7151
24.4154
13.0532
10.1627
9.894
28.8958
33.4739
29.0898
65.383
83.6285
48.8649
22.5717
11.5374
10.845
9.778
9.71887
93.6401
89.1888
85.3241
90.8252
54.2481
23.1185
11.9991
9.85304
9.71221
9.6221
9.61613
166.728
39.6055
25.4838
11.8335
9.74477
10.4722
9.98109
10.5728
9.54788
9.59715
9.72461
10.2945
12.3206
17.1175
16.7568
22.0288
14.2366
10.4851
9.55833
9.67207
9.94579
11.7628
14.7706
14.8279
14.4171
15.3881
21.1694
12.0942
11.5072
9.73751
10.082
12.3108
16.3981
16.3951
20.7782
40.6468
42.0294
18.646
38.5485
14.4579
10.0355
12.2401
16.6399
15.9306
20.7525
38.774
30.5084
17.4509
19.8979
12.2046
11.4846
11.5985
17.0935
22.3854
35.2602
35.8314
33.7746
52.508
24.9883
13.8872
10.3029
10.1227
13.8646
14.4314
20.7524
27.5998
28.1132
54.4419
21.4304
11.9868
11.3566
9.84269
9.72245
33.3111
32.7976
36.9631
35.2693
21.7053
52.3729
22.4242
13.1074
9.95918
9.8395
9.64186
9.64609
102.678
97.3301
85.6269
24.8194
40.9421
23.1122
12.327
10.6793
9.70708
9.64076
9.63348
9.6236
63
12.9437
11.6034
10.206
9.53745
9.55783
9.62852
9.80809
9.89289
9.96688
10.984
10.0523
10.9462
9.94872
9.57033
9.62474
9.80041
10.5336
13.3466
17.352
17.6986
23.4583
14.6016
10.4638
10.1886
9.56397
9.64036
9.99868
12.7614
15.572
13.0013
14.926
14.3565
22.8554
12.3563
11.4592
9.70938
10.0257
12.7155
15.5992
14.0863
10.9415
13.8807
23.9473
14.2086
10.3838
10.1787
10.1147
12.2412
15.5835
12.4514
12.0953
11.0077
17.3659
12.4063
11.5982
9.83277
9.71999
13.4632
13.3583
12.8635
10.4975
11.9387
18.5065
13.2699
10.0839
9.96397
9.66549
9.64026
13.0282
12.6305
12.9059
13.9862
11.3591
17.272
12.5898
10.7197
9.66746
9.64782
9.63936
9.63623
41.1786
37.9582
37.7898
12.5141
15.0961
11.801
10.1693
9.78914
9.63778
9.60167
9.60005
9.60876
32.6921
71.9597
29.951
9.53157
9.53278
9.53677
9.5635
9.62268
9.67171
9.91213
10.0548
10.1284
9.53539
9.55136
9.61598
9.77526
9.75835
9.74126
10.5021
10.0232
10.5648
9.55894
9.5941
9.68885
9.73955
10.2999
9.69817
10.0719
9.84345
10.9633
9.5824
9.65783
9.64055
9.87519
9.70977
9.67501
10.0667
10.1342
10.6456
9.67808
9.69831
10.0423
9.63241
9.70168
9.6662
10.1872
10.0059
9.97625
10.0187
10.1089
9.89101
9.77203
9.78767
9.85769
10.0119
9.63937
9.65491
12.9359
16.6547
12.3667
10.3269
10.1077
9.75716
9.74828
9.64077
9.62542
11.2564
11.4649
16.3069
11.5991
10.2489
9.67771
9.63419
9.53013
9.5319
9.53675
9.54526
9.56694
9.60725
9.6103
9.64778
9.68386
9.53139
9.53014
9.53475
9.54088
9.5617
9.60451
9.71095
9.81575
9.85401
9.53101
9.53967
9.57237
9.63705
9.56923
9.60199
9.71416
9.91231
10.0095
9.53336
9.54321
9.5696
9.55867
9.57555
9.58855
9.69413
9.79883
9.84877
9.55075
9.59597
9.54075
9.54645
9.57369
9.63761
9.70101
9.60443
9.61401
9.54058
9.54923
9.59797
9.55894
9.58023
9.62164
9.67184
9.64373
9.6355
9.76511
9.81302
9.78197
9.68258
9.62822
9.58672
9.57856
9.57375
9.58252
9.62147
9.59665
9.9341
9.82405
9.53818
9.5495
9.56003
9.58106
9.59067
9.61186
9.63974
9.53403
9.53923
9.54945
9.5602
9.57643
9.60557
9.65425
9.5412
9.55215
9.55138
9.56648
9.57869
9.61852
9.64355
9.54176
9.54215
9.54522
9.55872
9.57442
9.60117
9.61578
9.53755
9.54379
9.54535
9.57141
9.58087
9.58064
9.59465
9.58746
9.5636
9.54395
9.5549
9.56854
9.57826
9.58616
14.0997
16.1857
16.4496
23.1818
37.7993
37.4181
41.4969
39.0314
29.3659
77.5787
36.6581
20.8842
34.6853
68.1956
45.7804
275.361
44.0464
38.3961
37.8314
62.3609
72.8459
147.521
52.976
27.1484
28.1361
32.055
25.2
27.4015
459.571
36.3355
26.1825
39.6989
204.194
61.4083
41.9446
39.9165
39.6709
65.5623
111.272
173.989
162.508
89.1548
68.7568
93.0518
82.9968
187.602
326.147
254.025
49.9794
32.3216
85.5535
33.4293
70.534
53.8455
83.692
69.0871
89.5584
63.2897
292.103
114.465
42.3529
37.5952
29.8679
40.2998
64.5912
65.1482
39.0231
24.179
82.8077
32.5806
34.6476
74.2604
52.6095
86.428
67.4293
80.1974
27.6161
49.6393
60.1084
83.4129
67.3752
84.3784
54.1706
145.377
79.9156
73.7428
34.6087
110.262
130.089
50.4385
68.3097
75.1177
90.9253
78.8555
91.8232
73.6286
71.2697
50.4199
86.2341
228.081
82.7328
57.3261
30.7394
133.072
186.192
36.973
53.7345
185.623
29.2281
31.9742
144.724
27.0004
16.2823
146.052
313.777
183.274
33.9304
26.1751
22.9433
30.8668
326.856
235.918
219.65
36.3932
49.2959
66.0239
73.9489
201.709
107.519
19.7979
43.9882
57.6174
79.3917
101.041
39.8469
66.3502
85.68
32.4184
41.2723
116.577
94.725
35.4396
77.7702
48.7018
32.6418
37.726
98.2163
72.8285
129.528
25.2696
82.7626
61.0458
68.0964
104.869
87.6649
107.936
82.0251
81.0287
85.6527
91.5411
239.776
91.5445
69.5111
64.975
200.997
64.6952
28.771
14.404
57.0028
22.658
17.4393
84.4434
74.9248
95.6365
27.7819
37.086
70.2733
70.9543
73.2909
29.1176
32.6186
61.2071
80.4114
72.9044
69.1365
55.6905
66.6702
78.7532
57.5079
67.103
28.654
40.508
78.7478
40.2415
15.1129
10.5928
15.5549
24.8859
43.6252
26.0511
45.9935
14.6094
10.5106
15.0738
23.5326
39.9167
25.1269
46.7941
15.1186
11.1354
14.705
22.0001
50.4313
28.5231
30.7586
20.6445
30.0778
19.7857
34.5843
36.7807
72.4884
34.1653
48.397
32.5251
41.0729
36.4652
36.3975
38.9479
103.113
42.5982
61.5019
85.0511
32.7217
45.6189
75.6368
169.225
50.1065
30.6444
37.8351
123.739
121.413
152.899
47.1068
92.8266
32.3454
84.2168
33.4435
60.1607
61.7677
266.364
145.708
65.7
67.0829
85.8925
60.4859
96.9817
150.52
40.5341
79.0267
37.8762
185.276
157.054
213.438
53.488
95.5203
66.9366
35.6934
274.293
227.185
101.071
32.0321
115.308
63.71
66.1391
130.439
65.2873
112.845
146.315
38.8538
27.9652
28.2087
95.2687
31.4918
36.2466
44.6323
56.4227
93.3031
52.2475
478.354
62.2811
92.7937
71.6151
85.9186
45.9869
49.7097
70.5346
95.1244
42.1751
569.559
141.538
62.4317
65.7304
58.1259
28.4189
37.4964
35.7136
118.692
31.2724
23.0645
31.1709
100.676
92.3648
42.5458
39.4709
120.736
31.2278
40.7556
39.1029
27.5159
37.9542
79.7838
273.023
29.8302
39.9628
33.6485
32.4709
104.749
160.934
60.9196
19.6272
36.3243
25.4437
40.4147
76.9978
74.3742
203.584
35.7581
44.3999
24.9739
90.1855
171.138
101.261
387.999
82.4562
53.8186
106.947
172.058
178.842
53.9901
24.3888
33.4848
33.7275
36.9007
62.8003
63.8887
31.6652
27.3538
33.7649
88.6044
93.3978
82.0987
89.6473
81.6818
350.518
89.5085
78.1263
186.262
93.4874
35.2685
60.0297
78.5913
33.2252
37.5706
57.237
58.8498
31.0275
37.6447
86.907
47.6671
90.1265
140.316
247.822
82.6215
56.0985
63.4434
100.186
111.804
45.8518
57.9677
55.6398
31.2106
34.2206
84.3646
258.06
80.5108
243.848
134.24
183.974
93.5866
58.7926
120.342
202.591
41.4028
49.7975
71.1354
64.0693
30.5246
36.9913
24.337
44.8368
10.8566
15.6952
10.6499
15.595
33.8806
23.1559
42.9531
10.5894
14.9519
10.5889
15.0196
75.5998
49.1774
80.2147
73.2481
31.8431
29.6684
39.8895
41.9669
44.0751
82.8795
76.8872
27.6813
43.1784
36.0843
34.8518
34.8597
28.4872
39.2759
11.7982
13.7539
17.7215
16.6705
95.1242
87.1977
80.3555
58.2291
110.486
96.2182
78.7324
75.4565
62.8643
105.721
48.4343
59.7966
39.9383
37.5286
66.9623
33.6973
113.6
80.5918
28.6396
27.2638
22.1185
44.6851
22.9858
42.0365
25.3469
37.7235
12.0519
19.9811
33.2486
47.5835
38.4264
24.7257
39.1092
12.0255
17.176
38.7601
25.7627
29.1784
87.8194
60.0329
60.9912
90.609
65.914
55.7325
88.3843
65.4614
68.2543
91.6326
76.3869
51.7033
92.993
53.9267
64.1176
87.9532
77.8236
58.8062
96.238
58.5391
56.149
59.6522
56.0199
39.6786
63.1908
49.0672
62.1223
41.4486
58.2699
52.2458
68.8413
40.3711
69.3916
63.2799
54.466
47.126
68.0021
505.816
75.9046
58.7849
60.5032
50.8427
85.563
305.865
57.347
55.4061
79.9979
56.1404
57.2296
231.194
59.3408
55.3222
78.6648
55.927
89.2151
71.1052
381.555
57.7789
88.1421
138.035
63.4937
89.7616
98.8714
188.084
67.0927
63.4098
150.581
52.5728
86.6
295.547
188.355
85.7146
52.6879
173.225
160.791
68.0711
60.8519
152.412
56.6795
177.922
208.393
160.329
90.5708
58.9746
154.994
57.7088
113.446
209.165
89.4549
104.97
99.966
264.037
107.901
104.864
254.617
104.17
145.474
185.706
305.877
377.692
185.682
266.645
148.285
386.226
66.3317
576.799
108.901
147.752
101.685
131.161
58.2987
144.796
58.3491
83.3509
121.243
58.1114
93.2448
105.009
145.44
67.8223
61.1497
164.303
60.262
112.009
111.742
143.402
88.5924
58.6188
106
57.2871
105.685
123.577
187.711
74.3522
83.2714
102.253
84.9456
114.692
162.027
166.05
92.1192
261.909
93.9994
125.818
166.933
345.611
117.1
115.747
169.901
168.568
121.403
254.023
121.472
154.352
65.1803
65.3914
61.4311
524.209
62.732
427.891
64.5434
75.4375
317.494
243.307
77.8608
382.041
56.5248
83.2632
131.006
55.3339
135.124
139.394
378.777
66.8596
58.0476
56.8977
229.161
176.178
84.2244
52.59
128.683
53.5704
236.097
68.3327
157.734
301.463
129.138
213.297
196.497
144.636
424.537
295.569
150.395
2407.85
133.623
671.812
166.547
663.749
127.795
121.563
112.42
79.7271
151.367
79.3206
111.471
126.315
129.607
62.0337
608.117
64.4666
115.097
53.6593
92.5533
59.1318
92.8434
58.3898
84.0528
84.009
84.6743
86.7419
48.9856
59.183
88.1785
53.7463
268.451
57.7509
68.534
81.7488
78.6991
50.6849
86.2167
87.7449
93.2649
90.4136
67.5985
64.9847
43.1392
74.572
57.3583
47.2737
48.8105
45.127
43.4718
87.508
101.119
47.2454
42.0719
96.0378
253.118
47.2621
90.0943
269.871
158.542
160.391
150.168
143.436
74.9367
83.3738
149.365
150.977
227.435
56.0438
77.0917
145.839
94.125
52.0516
237.362
79.6386
73.6073
91.1347
53.9529
79.3336
64.9209
238.847
125.292
91.1645
111.651
86.9778
50.5029
77.6284
741.806
53.9943
251.565
67.1929
58.217
41.9157
95.2241
350.773
67.2771
267.447
75.878
48.7421
45.6285
554.736
346.8
75.6723
390.291
64.0185
47.422
169.246
101.065
243.57
64.865
47.2467
136.102
195.325
502.233
104.63
132.422
136.241
190.776
268.196
124.342
135.676
135.474
149.299
78.8776
65.3953
68.5768
116.203
121.87
66.1344
96.216
87.2723
175.219
103.657
347.837
84.5319
115.283
91.6292
108.577
342.6
114.005
349.95
87.5533
118.754
94.0646
190.938
299.481
106.67
155.074
113.588
125.67
59.9046
75.3382
28.507
39.3023
52.0494
85.3233
22.8077
65.5851
106.918
50.2423
60.12
69.3317
95.7605
67.6659
121.132
182.689
53.7354
61.2582
57.7898
137.397
65.6323
62.8223
124.417
53.5037
76.7651
65.1026
157.179
59.1035
80.944
136.188
54.472
207.959
73.2511
88.0517
68.9482
343.119
57.7415
54.5512
210.331
84.2166
87.9514
80.84
357.307
56.0642
58.6421
63.01
58.4426
156.87
63.0731
66.7909
138.809
59.0931
201.857
72.1856
86.6053
65.7969
169.988
60.2161
59.1734
113.728
86.1847
77.7013
79.7349
157.17
57.3961
98.4791
165.168
96.3109
62.6889
141.014
92.2097
317.996
75.0162
53.0731
153.078
104.755
143.223
161.238
158.032
72.6663
99.3955
37.9737
81.1719
62.8493
104.77
47.5576
194.34
322.912
84.4716
266.679
554.635
80.7596
364.154
80.6806
81.8522
99.8068
135.142
332.329
93.6887
183.489
120.747
91.1523
180.795
145.108
74.7722
46.5165
87.6538
249.136
183.035
70.59
88.0594
269.177
113.673
71.6167
78.3305
102.728
322.937
122.45
232.442
73.5715
56.7304
86.5722
104.415
128.54
70.0003
92.822
107.069
69.8437
73.9105
24.8025
72.7818
97.6775
502.054
99.3024
182.447
80.8736
71.048
97.8076
87.4864
79.001
56.1092
99.8476
90.8756
103.051
93.3762
89.7161
69.4986
123.212
62.2735
61.1064
73.2597
277.42
63.0394
72.5068
282.658
76.4722
57.1907
73.4454
278.084
54.0066
96.7
68.1946
77.927
62.4504
74.5867
85.484
93.5634
87.4176
113.64
97.4636
64.1641
281.337
58.9765
58.9537
79.7176
145.368
65.3557
59.9374
100.369
73.4641
52.6362
76.3478
127.153
55.8924
154.756
173.468
59.1125
48.4208
57.2712
57.1519
49.2153
51.2498
122.47
56.7306
66.1616
215.813
102.107
47.0285
165.502
335.938
62.1459
65.7183
98.5053
65.6905
60.9216
16.6183
15.6445
47.9947
31.9717
17.321
10.7583
16.8892
40.8119
27.1021
31.004
39.4139
29.3678
31.2801
15.618
11.191
14.4725
30.8002
37.1091
36.8354
28.3419
14.8628
10.9536
15.2145
37.174
42.7204
29.9382
39.0335
16.9021
10.7159
15.672
37.5704
39.3268
32.3182
32.4809
15.0277
11.2482
15.1648
35.9032
33.1015
31.0098
40.4888
15.7025
10.6623
16.1248
25.1273
47.5297
33.7775
41.0821
15.5675
45.3728
17.7639
37.4144
20.5388
35.3817
45.9152
18.8506
50.5817
25.4751
31.8363
18.3892
34.8524
40.0657
35.6397
38.9322
30.0569
54.9584
42.7911
21.8744
19.7671
61.8812
21.0378
53.1244
60.4621
48.36
29.0503
49.0141
35.1031
123.533
112.305
132.36
49.8909
35.034
59.3977
17.6689
48.4213
40.1077
66.0225
47.4027
34.2304
35.313
17.6352
42.4073
33.7828
37.0603
40.8568
35.9082
29.0253
120.081
35.1513
36.6723
42.8
46.3406
35.9364
45.1533
18.927
43.7205
36.2249
56.5123
144.934
60.854
64.35
83.5935
61.0481
83.6007
119.135
62.0299
67.6066
135.619
211.447
105.175
97.3705
62.6291
30.9641
41.8876
39.5376
192.695
39.2601
30.8709
34.2708
384.242
62.4853
65.1213
79.9434
58.1463
116.577
167.509
135.567
245.916
125.604
140.716
114.648
34.3386
33.2176
20.4146
37.5597
50.3759
41.353
70.1889
18.4649
23.1379
18.7367
50.5121
46.4654
69.7358
79.0971
52.842
177.862
75.3
81.7776
60.7761
60.1977
70.1452
277.431
148.948
56.5293
349.22
254.884
63.6463
50.1044
106.814
54.0584
131.747
47.0322
39.7363
43.1538
37.3144
38.2107
29.9229
28.674
175.589
105.973
121.957
121.186
94.2855
104.646
40.0458
32.6529
37.2705
40.2637
35.9901
30.4432
27.2775
369.814
106.107
112.829
125.422
148.125
128.453
36.936
50.7393
27.572
38.6152
37.3945
28.0993
23.9682
89.3835
120.424
100.047
80.3838
579.979
72.007
289.672
81.7783
79.4885
157.667
160.139
85.9258
102.337
33.9734
26.1131
35.0928
32.7496
33.7165
30.8052
25.338
32.9155
48.1766
58.8898
42.7819
62.2194
65.1069
60.4955
28.1115
32.4409
29.768
10.7672
15.6723
10.6328
15.5191
50.8155
37.5202
38.5824
10.7922
16.8182
11.0217
16.5085
41.9979
87.659
32.6126
18.0968
19.1959
33.8754
40.286
93.1298
86.5437
222.528
76.4593
61.1537
195.677
97.2138
72.017
409.069
56.6683
91.1857
82.9748
69.1005
47.2821
38.6522
68.0638
30.6555
25.6138
20.4394
28.4499
20.1647
62.9316
33.5849
16.4876
57.3032
20.0166
82.7986
53.6801
59.4006
64.3492
41.6346
59.5111
62.8841
24.3273
79.021
56.5866
90.516
137.864
90.7077
156.409
48.3672
28.1505
27.5278
68.9244
37.0471
73.035
59.9272
67.0592
26.5927
64.9958
68.8161
34.7646
68.8323
67.4595
89.4303
137.776
92.6462
135.343
83.5972
100.843
104.399
99.2609
93.6781
133.247
63.2119
56.4216
73.891
87.9857
59.8125
60.935
48.1347
26.5699
52.4296
49.5581
26.9209
58.4287
49.8237
168.602
153.439
163.56
164.428
68.9618
57.664
65.4492
59.1621
43.6188
20.7294
27.2864
71.7182
22.3312
61.427
68.7677
166.534
153.838
152.182
165.379
79.9837
96.1696
88.0065
82.2864
69.8378
62.1052
65.9281
84.4065
88.2268
70.5641
147.1
167.353
86.9403
80.5018
511.019
69.9073
90.2032
106.499
122.681
76.1113
81.3698
64.3991
39.6282
67.7831
82.3491
71.6512
63.0554
112.563
80.8944
126.356
101.034
197.451
72.4102
121.031
129.22
73.8475
91.0168
102.669
174.782
85.6139
71.94
164.277
144.249
61.0933
92.0161
103.246
59.597
105.57
116.269
268.985
81.3883
99.1034
98.5644
91.8498
115.505
371.684
160.068
91.7626
109.67
291.319
83.3953
130.616
325.739
175.078
340.32
215.946
72.351
85.4608
58.4352
178.299
42.4267
99.9512
111.48
69.2449
67.5878
26.0438
85.1317
28.1025
92.7368
63.2472
71.5299
68.8313
64.1781
120.58
50.7651
110.321
62.2839
181.25
143.306
217.038
433.652
107.202
144.685
160.157
138.163
154.245
291.774
23.4417
23.6276
57.7342
50.5416
35.0257
20.3555
59.16
73.9281
57.9633
34.8799
53.3409
49.218
22.9427
69.8697
38.614
52.3382
25.766
51.2377
32.0829
17.2627
60.6465
29.9751
52.8705
29.7622
54.7341
19.8552
65.5982
31.4484
58.106
69.8406
71.6739
63.8747
331.662
66.2809
80.6226
62.7893
60.1205
183.242
605.428
66.2666
58.1144
46.9442
219.683
47.416
178.573
65.1984
111.512
285.083
371.944
211.685
226.838
101.246
59.8711
59.5042
100.05
58.405
111.219
79.627
104.718
66.6309
67.1219
117.277
59.8849
198.027
60.3686
104.338
78.0961
273.091
58.8615
93.805
70.2825
88.146
254.292
72.6694
80.2042
300.654
136.315
274.986
77.7963
64.8077
82.5038
228.87
173.022
52.3427
78.8885
196.93
121.14
128.382
98.6657
70.3515
111.963
127.335
108.157
145.912
142.527
132.72
54.2231
73.7722
132.215
52.9992
86.0187
134.124
63.6173
55.3772
213.548
60.9539
80.9616
98.4167
107.194
295.177
104.394
85.4537
142.053
160.042
113.433
128.922
111.377
144.518
97.9234
135.045
40.3206
61.9607
46.4539
65.8534
55.3691
128.618
191.299
151.864
105.997
101.757
219.845
55.4927
187.97
42.9923
54.3613
65.8117
51.5625
56.3161
22.9505
74.7031
51.5939
24.7279
112.551
100.285
308.167
127.659
99.3551
122.255
166.43
108.224
103.293
348.661
113.548
102.188
122.903
258.991
50.5972
54.1342
18.4967
26.5534
66.9293
57.0843
16.0211
45.37
66.5452
21.2352
23.4074
73.7726
46.2229
22.5427
47.1138
70.1412
28.4238
15.9168
62.1867
48.19
15.8803
190.304
105.709
374.206
115.034
97.3021
168.746
348.1
149.879
264.205
263.382
119.322
148.932
154.199
127.332
59.0051
73.0039
60.6604
61.3504
85.4969
68.4709
128.704
64.4488
53.0044
74.5388
53.5839
103.86
62.7189
153.307
111.361
71.6966
63.7155
109.45
124.666
61.8882
148.045
121.305
104.036
1013.53
250.134
482.213
65.5347
77.1824
22.8666
21.3004
61.1591
61.1793
30.3135
62.4757
86.8802
74.0293
63.302
89.3023
103.72
55.2113
61.3194
40.5841
60.544
90.7892
38.7824
77.2347
138.724
115.229
127.98
118.198
113.345
75.6528
66.5806
32.393
58.8486
60.4246
108.036
69.5911
100.152
110.663
82.8909
52.8431
115.824
118.272
54.8721
170.775
229.957
88.1303
68.1341
72.057
178.886
100.843
246.359
306.975
145.836
174.909
85.3405
215.151
143.863
72.5407
100.206
82.4217
111.22
100.645
82.2708
149.314
90.8737
551.722
129.83
98.829
73.2984
96.3063
96.7589
668.419
106.932
124.98
124.08
133.331
95.9847
140.145
113.382
98.0147
168.585
190.938
55.2479
61.3891
63.248
61.8869
87.4432
92.1474
209.692
104.246
118.333
106.42
201.131
183.149
119.313
75.3301
98.7555
69.4434
126.995
74.5229
122.615
18.8434
43.1967
21.5507
31.8267
20.2352
91.9589
89.4096
222.344
71.1596
51.5323
95.3763
238.823
70.1972
70.9034
31.3078
23.8125
62.9404
78.1625
33.094
76.4256
44.579
30.2908
43.6859
37.3207
81.0658
23.8668
68.2739
32.0421
26.1026
26.1576
71.1392
89.1186
33.0088
86.7215
68.3116
53.87
37.0346
71.5668
92.7144
54.8869
81.5
91.4494
93.1644
62.5193
58.7956
60.6397
63.6112
79.9617
82.1141
90.618
80.7034
101.884
65.4559
59.9504
69.0841
204.108
72.0674
65.8141
273.763
60.8815
159.986
80.2857
301.208
70.9221
61.9785
76.5559
68.7196
137.311
89.0793
72.2933
108.945
58.0547
36.7857
46.828
46.939
87.9564
61.3934
123.046
143.384
59.0902
69.0856
33.6569
70.418
315.011
160.865
68.1725
45.7689
46.4201
60.488
69.6483
71.8031
62.2331
68.8382
30.3556
33.6285
60.5653
165.216
680.995
80.32
194.497
78.8314
70.0869
55.9857
82.0978
90.924
187.035
125.132
97.4656
83.2027
166.401
80.641
285.877
114.336
130.857
95.6784
84.0108
150.543
72.5993
151.893
111.96
69.316
67.8171
66.7321
71.455
105.537
188.572
247.309
61.4791
151.203
82.6303
115.727
86.2462
188.589
56.6096
64.5747
94.735
74.7073
111.624
188.689
237.122
153.821
77.5462
85.1949
83.0659
102.849
60.0423
170.715
208.477
92.9137
78.9263
65.8424
83.9302
70.6002
93.7599
106.712
80.3427
52.4672
67.7769
65.509
173.737
238.776
380.417
121.863
108.091
109.633
199.546
382.099
98.2803
75.9801
79.8501
99.6154
103.513
227.53
119.44
95.7987
58.6165
59.5692
98.9179
79.5459
113.746
128.279
145.505
86.0599
102.75
134.589
78.6524
120.922
103.564
127.767
85.9066
94.6043
133.322
78.7538
113.191
105.897
141.967
101.717
83.5827
132.002
86.1479
155.877
85.6063
83.9841
153.423
92.7331
58.5863
97.5757
50.3257
59.2335
108.718
92.8484
72.9967
90.197
77.6467
79.6837
105.55
73.7361
55.0737
63.2647
84.7371
79.9331
51.9393
64.3523
84.855
74.584
141.142
74.322
87.7073
111.689
75.9861
100.98
95.2697
105.057
92.7105
98.7751
100.361
115.261
93.0993
105.621
101.206
95.0845
140.475
98.7521
93.6517
75.1836
91.2374
319.993
1188.67
93.1979
74.6074
78.8196
104.919
82.8897
89.2341
74.921
388.314
90.4019
683.75
77.9326
90.15
76.2321
76.7729
81.6672
73.8677
111.587
61.104
56.0875
57.4607
59.9279
43.0642
42.3962
121.415
109.137
258.39
179.497
434.917
150.732
241.019
106.18
130.039
175.159
451.723
325.097
73.173
57.0601
70.7527
41.165
75.6019
51.9959
79.4773
74.4571
95.6293
61.088
74.5882
53.5222
46.6502
60.3026
756.014
87.2906
67.747
74.7892
86.6743
135.624
70.455
221.459
86.9353
81.5709
50.9923
47.5901
50.4091
36.0329
272.593
80.9618
100.88
107.724
84.3862
68.7317
55.976
117.679
103.983
141.487
125.994
500.038
102.59
115.141
104.928
95.927
116.241
462.117
297.997
116.798
830.631
131.781
523.797
344.142
86.5598
48.2961
57.215
116.809
132.125
78.9271
235.39
113.589
115.942
58.1595
88.1121
117.976
76.08
93.2759
127.194
100.769
61.364
100.549
65.6378
72.9956
106.45
89.4159
71.3584
67.1678
110.356
185.866
286.138
92.6468
105.002
122.776
80.4919
88.6653
96.383
68.4487
184.889
86.2414
117.015
84.5136
60.9789
90.7826
69.5505
75.5274
71.9279
24.7465
108.113
82.706
74.8034
37.3979
59.9206
480.51
78.1291
65.3457
64.2764
49.2568
69.8867
288.709
58.0799
80.8013
47.3351
48.6502
70.1918
96.5737
63.2617
72.1683
68.6785
60.1677
50.1234
43.9803
95.6759
173.219
254.17
103.689
103.86
282.628
66.32
96.0786
94.0343
129.516
105.433
71.8744
67.3308
112.612
106.299
161.287
112.182
70.9575
87.8438
85.9213
94.8113
115.861
217.08
124.392
112.446
249.488
121.491
76.8915
162.128
81.9308
273.573
81.1326
79.06
197.488
78.9514
78.1274
190.704
76.6692
109.034
137.857
94.3877
94.368
128.176
118.02
118.081
106.35
84.6936
126.248
118.871
175.897
152.337
97.5857
79.0224
81.424
219.016
69.4565
112.572
120.971
119.367
170.712
128.964
121.765
201.157
148.767
82.0863
121.027
139.857
164.779
104.344
61.4969
65.338
42.1291
145.762
85.6996
61.3237
83.094
46.2391
49.4563
35.2281
81.1291
62.9264
67.6672
63.4048
75.9976
59.9765
73.4204
64.8982
66.334
37.252
30.3959
93.9579
58.7131
85.3582
62.3157
60.9405
29.1019
53.6522
78.5289
52.0178
73.4767
63.9752
70.0645
34.8221
31.2085
91.3633
223.883
64.7539
94.7031
86.948
182.829
54.8412
92.7261
90.0781
224.265
59.6058
54.0745
183.41
87.292
99.5004
258.283
243.13
96.7972
94.6306
82.2616
92.2561
137.157
63.6154
91.4851
91.4358
223.68
67.8604
91.4148
82.0877
119.383
50.4141
50.4609
162.325
91.3404
88.431
84.6062
85.1184
457.805
268.288
82.4989
94.4775
94.3924
232.071
87.8902
97.4595
229.297
75.5602
105.044
104.976
89.0745
83.1415
68.7155
57.3946
211.303
68.1183
87.7019
67.6207
56.4468
47.8861
80.1413
141.573
98.993
130.174
172.566
91.358
147.277
407.852
103.391
161.483
85.033
108.217
84.365
173.145
127.359
96.7322
200.775
111.05
94.3023
52.7563
90.4382
68.3042
441.143
93.9092
88.2603
79.225
59.9308
41.0397
40.9237
94.258
81.2574
88.9332
237.16
80.7034
85.1551
84.0694
92.571
467.217
93.3477
164.476
97.8156
161.364
90.2341
54.2026
47.2262
87.1695
46.0391
92.0314
81.9545
90.7879
72.1864
85.61
75.5079
95.3593
83.3467
80.5413
71.7701
53.7732
95.8187
59.7217
83.832
86.0081
234.861
69.6413
85.1838
93.2617
58.5134
235.794
86.4424
105.2
444.184
87.4431
126.46
84.0297
104.476
253.888
87.8477
96.5771
173.578
79.9216
45.4023
46.5501
75.3575
82.3574
80.0923
41.6757
58.2142
82.0493
41.6772
82.6231
171.012
166.848
165.721
149.364
158.97
162.035
80.5636
47.5288
81.6549
47.3966
81.4806
39.3506
57.0008
70.5413
40.802
75.0822
81.1639
167.895
161.716
80.6494
44.12
43.3444
73.9204
91.8427
135.892
152.901
79.8574
73.7028
62.6186
75.9066
38.1079
55.4004
70.9226
38.1263
72.1997
79.2135
72.2786
43.8547
41.5308
66.9257
97.5407
157.351
68.7796
41.9199
38.3802
83.9014
38.6817
69.9019
71.9114
74.5991
79.449
49.7523
62.6366
48.3814
79.0388
80.6064
163.48
111.098
145.963
120.435
163.553
147.614
163.038
126.221
71.5052
43.9913
42.0361
83.8096
39.6803
78.2908
71.8433
71.9908
47.6064
61.9508
70.2776
47.6293
78.9466
70.5701
159.932
98.2591
117.828
116.808
87.1429
106.118
90.3005
108.523
81.362
95.0533
89.8576
84.299
87.1834
93.5165
106.674
87.4791
69.8165
40.0263
37.094
91.7039
35.4774
80.4341
75.6174
73.2775
130.461
77.2974
109.352
70.4204
93.3123
76.9689
88.0151
75.2836
49.1087
62.0971
72.9665
81.2183
45.2517
77.3965
72.6413
91.5116
103.044
73.6625
89.8015
161.665
90.5201
84.3448
93.6065
90.5459
236.075
91.1602
83.117
82.5408
91.845
86.4719
83.4728
78.4154
70.6374
89.1848
115.957
118.788
82.3592
75.5907
65.41
135.622
87.9529
111.988
84.5969
76.7034
97.1212
80.4727
198.399
117.368
180.086
119.464
78.2553
135.86
76.0416
94.1939
102.566
179.042
74.9352
76.4651
126.488
72.9769
176.202
80.8949
180.877
69.6243
87.5741
172.161
77.3653
96.7855
101.041
180.008
73.7129
89.9207
169.073
79.1365
198.049
117.549
180.629
116.713
78.0061
187.066
78.2766
185.093
84.7445
181.357
80.3524
89.1037
187.982
78.3519
94.0708
179.319
180.326
76.4525
91.3648
185.26
85.9179
81.3922
140.685
150.405
85.3616
82.7297
129.504
85.0336
115.079
216.074
254.202
116.449
84.8801
122.951
84.0504
124.343
106.331
218.427
114.741
81.8443
118.539
90.7789
300.072
96.8467
251.473
84.671
93.6691
134.938
73.3285
76.6971
129.332
159.348
78.8046
75.3074
147.904
89.7201
110.171
117.983
195.968
109.66
90.7088
134.807
77.5324
136.363
108.615
114.422
107.555
83.4878
129.86
89.8138
145.52
100.571
195.332
92.6253
96.5749
142.596
307.901
336.832
86.7525
94.3752
128.792
92.8313
121.9
160.946
102.694
89.3412
93.0546
847.247
102.284
136.46
241.269
97.2407
101.192
97.3934
225.193
1843.02
115.46
162.362
235.644
294.456
885.895
217.397
191.835
104.048
86.9648
82.0591
337.178
263.972
336.166
114.439
148.138
455.105
331.331
234.964
105.726
100.337
97.012
196.229
454.366
529.551
163.582
218.055
195.849
201.551
584.896
265.461
402.923
268.514
2292.66
423.725
203.024
166.142
324.607
204.48
2018.23
342.659
156.9
227.317
686.654
162.24
225.131
214.261
357.726
167.996
290.183
303.203
120.17
133.858
127.515
65.0475
129.074
68.6254
138.701
153.782
94.3945
129.352
77.2462
144.966
70.0939
216.393
127.604
109.249
74.3429
147.561
108.912
253.864
153.005
116.685
92.9529
62.1847
88.8058
117.49
127.412
86.4767
68.6889
123.152
42.9651
121.089
100.735
129.006
47.1525
84.4668
118.455
48.663
118.145
79.4386
124.365
76.5857
57.4413
122.347
89.449
99.6774
137.27
128.589
83.1979
92.1957
144.925
91.6497
113.934
177.734
139.467
93.283
109.448
151.881
86.5623
124.81
93.5577
163.757
80.0001
113.508
148.151
84.2291
127.818
99.7124
137.859
85.0984
101.336
147.323
91.3473
95.3569
123.948