/*--------------------------------*- C++ -*----------------------------------*\
  =========                 |
  \\      /  F ield         | OpenFOAM: The Open Source CFD Toolbox
   \\    /   O peration     | Website:  https://openfoam.org
    \\  /    A nd           | Version:  10
     \\/     M anipulation  |
\*---------------------------------------------------------------------------*/
FoamFile
{
    format      ascii;
    class       volScalarField;
    location    "0.1";
    object      p;
}
// * * * * * * * * * * * * * * * * * * * * * * * * * * * * * * * * * * * * * //

dimensions      [0 2 -2 0 0 0 0];

internalField   nonuniform List<scalar> 
115093
(
134.426
134.838
134.437
134.856
134.455
134.884
134.484
134.905
134.415
134.839
134.406
134.883
134.423
134.913
134.449
134.943
134.495
134.784
134.482
134.832
134.484
134.874
134.486
134.92
134.495
134.78
134.452
134.874
134.44
134.933
134.44
134.965
134.47
134.83
134.473
134.884
134.465
134.933
134.33
134.861
134.342
134.833
134.326
134.901
134.19
135.065
134.382
134.879
134.386
134.834
134.384
134.905
134.27
135.083
134.435
134.796
134.425
134.802
134.395
134.881
134.288
135.035
134.496
134.819
134.464
134.819
134.397
134.927
134.209
135.132
134.476
134.847
134.444
134.834
134.365
134.962
134.246
135.081
134.5
134.844
134.267
134.952
134.302
134.91
134.347
134.942
134.476
134.964
134.415
135.125
134.408
134.877
134.444
134.878
134.451
134.948
134.498
134.909
134.432
135.066
134.441
134.805
134.402
134.915
134.417
134.971
134.41
135.036
134.305
135.147
134.544
134.806
134.505
134.878
134.487
134.941
134.429
135.039
134.381
135.08
134.227
134.657
134.514
134.897
134.436
135.024
134.397
135.058
134.317
135.13
134.206
134.249
134.366
134.92
134.463
134.968
134.38
135.074
134.374
135.091
134.232
134.344
134.372
135.017
134.05
135.164
134.082
135.101
134.179
135.043
134.032
135.228
134.005
135.28
134.149
135.023
134.155
134.993
134.185
134.983
134.09
135.085
133.936
135.338
134.226
135.02
134.252
134.947
134.078
134.879
134.262
135.059
134.026
135.337
134.457
134.713
134.568
134.244
134.173
134.229
134.17
135.057
133.995
135.333
134.407
134.92
134.06
134.215
134.198
134.28
134.34
134.982
134.122
135.259
134.1
134.235
134.162
134.205
134.212
134.297
134.398
134.991
134.113
135.25
134.265
134.222
134.205
134.234
134.251
134.31
134.122
135.311
134.14
135.294
134.382
134.31
134.232
134.301
134.327
134.893
134.268
135.099
134.133
135.217
134.416
134.454
134.259
134.351
134.296
135.175
135.141
133.916
135.279
133.964
134.025
135.161
134.093
135.033
134.144
135.02
133.906
134.153
133.782
135.458
134.202
135.04
134.284
134.945
134.486
134.362
134.256
134.32
134.345
135.19
134.255
134.891
134.444
134.319
134.24
134.302
134.303
134.333
134.47
135.262
134.423
134.82
134.184
134.426
134.356
134.402
134.346
134.398
134.413
135.19
134.516
134.368
134.391
134.379
134.413
134.483
134.473
134.367
133.805
135.445
134.258
134.426
134.373
134.438
134.444
134.507
134.605
135.002
134.1
135.216
134.447
134.504
134.481
134.487
134.466
134.569
134.46
135.066
134.128
135.233
134.537
134.435
134.433
134.542
134.51
134.374
134.125
135.259
134.232
135.214
134.678
134.644
134.47
134.629
134.409
134.958
135.2
133.81
135.215
133.682
133.998
135.192
134.136
134.946
134.405
134.327
134.169
134.25
134.257
135.297
134.113
135.031
134.023
135.071
134.007
134.472
134.481
134.559
134.63
134.376
133.159
134.134
135.055
134.057
134.445
134.404
134.599
134.368
134.539
134.674
134.504
133.497
134.606
134.378
134.428
134.559
134.37
134.421
134.423
134.627
134.736
134.499
133.213
134.14
134.485
134.537
134.592
134.666
134.668
134.522
134.789
134.562
135.389
133.759
134.416
134.536
134.595
134.649
134.652
134.734
134.678
134.517
133.662
135.571
133.797
134.481
134.664
134.696
134.677
134.68
134.602
134.676
135.202
134.05
135.325
134.057
134.78
134.778
134.682
134.66
134.611
134.598
134.084
135.286
134.027
135.335
134.053
134.681
134.561
134.61
135.071
135.189
133.842
135.22
133.723
133.929
135.248
134.07
135.018
134.255
134.351
134.186
134.284
134.281
135.257
134.129
135.053
134.085
135.031
134.106
134.51
134.295
134.588
134.602
134.433
133.295
134.066
135.088
134.181
134.572
134.525
134.577
134.691
135.001
135.088
135.283
133.854
134.629
134.581
134.525
134.632
134.573
134.741
134.826
134.944
134.877
134.951
133.367
134.272
134.579
134.585
134.74
134.848
134.526
134.711
134.863
134.585
135.385
133.839
134.46
134.569
134.748
134.802
134.663
134.69
134.801
134.857
133.772
135.538
133.943
134.558
134.562
134.773
134.827
134.715
134.735
134.631
135.137
134.037
135.29
134.073
134.74
134.759
134.822
134.649
134.695
134.644
134.079
135.278
134.123
135.296
134.182
134.78
134.665
134.572
135.016
135.259
133.77
135.359
133.767
133.925
135.256
134.055
134.998
134.312
134.421
134.157
134.306
133.586
135.678
134.001
135.188
133.998
135.135
134.156
134.587
134.48
134.743
134.495
135.344
133.593
134.178
135.018
134.377
134.672
134.544
134.667
134.612
134.77
134.693
134.783
133.131
134.296
134.906
134.385
134.643
134.61
134.67
134.66
134.784
134.596
135.38
133.629
134.542
134.558
134.573
134.486
134.594
134.642
134.622
134.779
133.723
135.616
133.794
134.33
134.56
134.621
134.667
134.583
134.624
134.661
135.092
133.91
135.359
133.899
134.448
134.501
134.507
134.627
134.614
134.609
134.711
134.055
135.352
134.049
135.384
134.043
134.78
134.806
134.766
134.714
134.654
134.619
134.993
134.18
135.238
134.016
135.314
134.04
134.716
134.648
134.335
135.195
133.848
135.369
133.922
135.281
134.083
135.107
133.91
135.278
133.919
135.296
134.031
135.162
134.081
135.027
134.256
134.533
134.241
134.418
133.63
135.767
133.828
134.048
135.173
134.132
135.023
134.266
134.632
134.435
134.634
134.44
135.199
133.771
134.354
134.848
134.477
134.598
134.47
134.584
134.466
134.643
133.718
135.718
133.887
134.268
135.007
134.292
134.594
134.467
134.584
134.472
135.029
134.087
135.263
133.994
134.267
134.473
134.45
134.53
134.476
134.611
134.069
135.315
134.062
135.386
134.095
134.493
134.397
134.546
134.457
134.55
134.49
134.955
134.298
135.203
134.106
135.284
134.081
134.578
134.641
134.561
134.63
134.518
134.25
135.103
134.174
135.267
134.128
135.281
134.192
134.668
134.735
134.688
133.798
135.423
133.838
135.337
133.913
135.235
133.969
135.344
133.823
133.883
135.354
133.913
135.354
134.002
135.256
133.855
135.374
133.818
133.996
135.231
133.996
135.177
133.954
135.246
133.908
135.23
133.742
134.092
135.175
134.154
135.169
134.058
135.263
133.943
135.34
133.881
134.26
134.999
134.141
135.15
134.089
135.217
134.012
135.345
133.955
134.29
135.05
134.289
135.102
134.144
135.244
134.07
135.339
133.959
134.243
134.418
134.247
135.154
134.177
135.231
134.071
135.358
134.015
134.422
134.551
134.384
134.862
134.284
135.191
134.081
133.783
135.464
133.833
135.406
133.92
135.346
133.968
135.381
133.971
133.908
135.328
133.947
135.244
134.039
135.107
134.125
135.219
133.96
133.947
135.304
134.01
135.223
134.15
135.106
134.208
135.179
134.102
134.105
135.137
134.153
135.02
134.241
135.009
134.243
135.156
134.037
134.109
135.176
134.199
135.059
134.27
135.077
134.227
135.243
134.11
134.271
135.02
134.279
134.992
134.284
135.053
134.16
135.23
134.114
134.242
135.117
134.275
135.053
134.253
135.195
134.156
135.308
134.086
134.287
135.03
134.289
135.062
133.799
135.468
133.813
135.474
133.821
135.491
133.849
133.848
135.403
133.847
135.421
133.878
135.421
133.908
133.932
135.373
133.905
135.43
133.889
135.459
133.898
133.966
135.335
133.939
135.391
133.936
135.409
133.952
134.046
135.302
133.98
135.397
133.939
135.435
133.933
134.082
135.278
134.009
135.368
133.963
135.409
133.978
134.543
134.538
134.526
134.646
134.622
134.667
134.589
134.682
134.633
134.692
134.699
134.686
134.665
134.784
134.619
134.636
134.683
134.657
134.673
134.764
134.652
134.682
134.657
134.628
134.631
134.682
134.65
134.688
134.63
134.679
134.515
134.699
134.666
134.656
134.682
134.647
134.694
134.731
134.786
134.667
134.708
134.651
134.668
134.676
134.845
134.642
134.721
134.735
134.642
134.685
134.663
134.746
134.72
134.85
134.676
134.68
134.654
134.809
134.608
134.677
134.738
134.627
134.569
134.717
134.762
134.717
134.721
134.773
134.695
134.588
134.684
134.774
134.731
134.659
134.775
134.642
134.787
134.736
134.838
134.647
134.716
134.639
134.826
134.647
134.648
134.667
134.681
134.716
134.643
134.632
134.705
134.738
134.725
134.706
134.777
134.776
134.632
134.661
134.816
134.788
134.627
134.679
134.652
134.66
134.788
134.648
134.664
134.801
134.677
134.7
134.779
134.697
134.699
134.814
134.568
134.727
134.648
134.691
134.658
134.673
134.514
134.687
134.709
134.605
134.631
134.622
134.68
134.624
134.661
134.625
134.645
134.644
134.67
134.682
134.73
134.747
134.709
134.478
134.718
134.764
134.733
134.692
134.772
134.725
134.49
134.74
134.799
134.721
134.633
134.658
134.635
134.729
134.658
134.681
134.724
134.74
134.731
134.783
134.765
134.706
134.77
134.776
134.682
134.743
134.784
134.745
134.69
134.706
134.734
134.706
134.727
134.649
134.636
134.733
134.608
134.683
134.7
134.669
134.702
134.653
134.703
134.739
134.677
134.647
134.715
134.67
134.728
134.684
134.737
134.752
134.728
134.562
134.659
134.632
134.591
134.463
134.538
134.616
134.695
134.628
134.664
134.578
134.497
134.537
134.611
134.661
134.634
134.641
134.561
134.515
134.606
134.633
134.617
134.637
134.657
134.447
134.46
134.484
134.68
134.569
134.698
134.624
134.616
134.461
134.663
134.573
134.661
134.763
134.777
134.686
134.66
134.698
134.567
134.664
134.843
134.668
134.749
134.48
134.781
134.811
134.91
134.747
134.811
134.655
134.668
134.689
134.776
134.738
134.826
134.635
134.61
134.631
134.703
134.794
134.628
134.644
134.796
134.708
134.726
134.753
134.647
134.759
134.77
134.716
134.667
134.684
134.701
134.676
134.662
134.678
134.676
134.631
134.602
134.67
134.577
134.615
134.536
134.565
134.681
134.525
134.539
134.704
134.701
134.729
134.69
134.674
134.691
134.677
134.679
134.694
134.771
134.788
134.691
134.7
134.641
134.772
134.847
134.645
134.707
134.614
134.607
134.678
134.615
134.674
134.642
134.693
134.645
134.671
134.678
134.656
134.648
134.638
134.687
134.784
134.813
134.422
134.695
134.72
134.72
134.686
134.832
134.571
134.44
134.7
134.683
134.676
134.855
134.735
134.803
134.655
134.757
134.673
134.78
134.728
134.827
134.657
134.478
134.69
134.654
134.64
134.546
134.685
134.757
134.765
134.659
134.829
134.735
134.739
134.706
134.655
134.663
134.692
134.684
134.721
134.855
134.552
134.662
134.708
134.649
134.637
134.714
134.723
134.789
134.199
134.698
134.778
134.67
134.696
134.666
134.61
134.688
134.657
134.707
134.73
134.824
134.556
134.726
134.804
134.646
134.685
134.754
134.762
134.806
134.693
134.777
134.714
134.619
134.639
134.609
134.6
134.643
134.667
134.672
134.664
134.692
134.732
134.512
134.635
134.74
134.684
134.656
134.774
134.641
134.71
134.646
134.728
134.705
134.703
134.604
134.681
134.438
134.502
134.477
134.559
134.692
134.623
134.661
134.487
134.566
134.527
134.58
134.643
134.675
134.787
134.693
134.342
134.46
134.594
134.654
134.717
134.831
134.697
134.321
134.737
134.662
134.687
134.672
134.67
134.623
134.546
134.576
134.592
134.552
134.651
134.66
134.731
134.635
134.752
134.656
134.648
134.791
134.647
134.802
134.631
134.733
134.58
134.717
134.735
134.688
134.665
134.686
134.698
134.578
134.667
134.61
134.515
134.662
134.671
134.603
134.38
134.628
134.36
134.656
134.691
134.74
134.62
134.447
134.693
134.405
134.466
134.687
134.692
134.681
134.686
134.728
134.691
134.69
134.697
134.673
134.767
134.77
134.778
134.663
134.699
134.688
134.692
134.696
134.695
134.691
134.729
134.68
134.668
134.657
134.664
134.651
134.75
134.66
134.73
134.666
134.69
134.683
134.676
134.649
134.73
134.727
134.645
134.661
134.663
134.667
134.671
134.648
134.652
134.727
134.672
134.639
134.653
134.717
134.652
134.659
134.714
134.632
134.732
134.675
134.653
134.639
134.706
134.737
134.69
134.623
134.701
134.719
134.663
134.7
134.806
134.682
134.681
134.67
134.727
134.642
134.679
134.681
134.677
134.684
134.675
134.722
134.609
134.69
134.632
134.763
134.623
134.776
134.589
134.617
134.677
134.59
134.682
134.586
134.714
134.6
134.818
134.676
134.648
134.744
134.572
134.674
134.942
134.644
134.687
134.801
134.724
134.572
134.742
134.95
134.7
134.581
134.729
134.618
134.728
134.752
134.741
134.724
134.757
134.612
134.584
134.656
134.715
134.587
134.7
134.694
134.597
134.673
134.612
134.653
134.611
134.781
134.552
134.603
134.646
134.568
134.689
134.574
134.693
134.55
134.593
134.8
134.717
134.739
134.711
134.799
134.584
134.781
134.701
134.426
134.717
134.658
134.572
134.603
134.703
134.79
134.527
134.593
134.699
134.477
134.658
134.538
134.705
134.858
134.851
134.8
134.837
134.704
134.728
134.763
134.774
134.742
134.789
134.584
134.571
134.653
134.679
134.557
134.691
134.591
134.585
134.707
134.603
134.596
134.712
134.588
134.651
134.58
134.648
134.559
134.538
134.827
134.753
134.768
134.702
134.762
134.751
134.687
134.821
134.742
134.656
134.536
134.64
134.539
134.522
134.557
134.652
134.629
134.716
134.701
134.549
134.702
134.634
134.669
134.661
134.672
134.458
134.676
134.671
134.68
134.727
134.717
134.699
134.702
134.696
134.729
134.695
134.673
134.678
134.716
134.678
134.697
134.735
134.722
134.711
134.781
134.736
134.735
134.749
134.701
134.703
134.722
134.786
134.684
134.706
134.785
134.722
134.735
134.635
134.655
134.647
134.741
134.649
134.653
134.661
134.642
134.427
134.655
134.841
134.498
134.644
134.683
134.632
134.685
134.661
134.67
134.674
134.648
134.585
134.723
134.718
134.697
134.647
134.684
134.464
134.652
134.693
134.641
134.691
134.657
134.694
134.554
134.739
134.719
134.737
134.723
134.729
134.756
134.685
134.712
134.72
134.72
134.667
134.696
134.808
134.68
134.747
134.714
134.767
134.665
134.709
134.64
134.673
134.628
134.7
134.641
134.672
134.529
134.69
134.918
134.624
134.681
134.564
134.535
134.724
134.719
134.822
134.515
134.503
134.919
134.569
134.626
134.535
134.573
134.737
134.656
134.623
134.794
134.557
134.62
134.64
134.697
134.467
134.65
134.227
134.71
134.53
134.629
134.699
134.313
134.739
134.207
134.769
134.52
134.625
134.483
134.331
134.664
134.259
134.513
134.518
134.643
134.623
134.613
134.635
134.696
134.584
134.601
134.612
134.727
134.601
134.625
134.754
134.543
134.632
134.657
134.66
134.641
134.769
134.664
134.662
134.667
134.762
134.583
134.593
134.701
134.678
134.731
134.62
134.709
134.618
134.634
134.671
134.719
134.652
134.768
134.611
134.633
134.587
134.735
134.686
134.669
134.707
134.621
134.583
134.633
134.784
134.669
134.739
134.661
134.8
134.575
134.624
134.742
134.769
134.624
134.802
134.544
134.627
134.609
134.81
134.685
134.671
134.708
134.575
134.607
134.714
134.745
134.693
134.736
134.606
134.688
134.765
134.758
134.759
134.615
134.704
134.61
134.596
134.612
134.71
134.679
134.601
134.64
134.714
134.619
134.615
134.656
134.653
134.675
134.726
134.661
134.659
134.734
134.669
134.718
134.728
134.577
134.735
134.657
134.548
134.74
134.673
134.565
134.679
134.722
134.699
134.735
134.548
134.697
134.76
134.75
134.594
134.747
134.676
134.698
134.674
134.408
134.667
134.745
134.758
134.722
134.755
134.68
134.738
134.751
134.752
134.731
134.753
134.72
134.689
134.643
134.674
134.631
134.671
134.652
134.631
134.642
134.677
134.672
134.694
134.652
134.72
134.654
134.724
134.673
134.714
134.639
134.663
134.674
134.632
134.743
134.637
134.637
134.685
134.674
134.675
134.647
134.682
134.647
134.624
134.683
134.682
134.684
134.658
134.697
134.659
134.765
134.677
134.676
134.697
134.643
134.686
134.725
134.643
134.777
134.649
134.642
134.684
134.705
134.683
134.649
134.692
134.654
134.63
134.639
134.66
134.626
134.621
134.642
134.657
134.649
134.643
134.667
134.655
134.721
134.647
134.689
134.653
134.654
134.68
134.72
134.686
134.701
134.694
134.688
134.623
134.613
134.679
134.668
134.746
134.416
134.638
134.511
134.427
134.653
134.683
134.665
134.653
134.658
134.406
134.709
134.65
134.709
134.645
134.677
134.601
134.483
134.532
134.541
134.679
134.685
134.686
134.683
134.489
134.622
134.631
134.682
134.651
134.693
134.585
134.485
134.501
134.535
134.695
134.675
134.652
134.56
134.485
134.569
134.619
134.661
134.644
134.678
134.568
134.662
134.493
134.642
134.535
134.477
134.651
134.649
134.667
134.758
134.651
134.509
134.466
134.646
134.613
134.658
134.715
134.6
134.648
134.61
134.677
134.748
134.605
134.654
134.733
134.743
134.418
134.74
134.685
134.879
134.829
134.886
134.649
134.602
134.649
134.635
134.719
134.76
134.731
134.651
134.61
134.652
134.589
134.646
134.761
134.665
134.764
134.614
134.542
134.772
134.753
134.818
134.742
134.656
134.642
134.639
134.58
134.619
134.776
134.728
134.598
134.65
134.701
134.796
134.623
134.691
134.788
134.629
134.653
134.771
134.585
134.723
134.638
134.647
134.711
134.676
134.747
134.726
134.751
134.764
134.715
134.578
134.622
134.703
134.798
134.599
134.68
134.737
134.632
134.641
134.874
134.836
134.823
134.604
134.82
134.68
134.772
134.722
134.744
134.738
134.566
134.567
134.7
134.664
134.708
134.705
134.832
134.705
134.734
134.695
134.797
134.751
134.702
134.714
134.433
134.708
134.674
134.67
134.948
134.717
134.652
134.705
134.684
134.763
134.796
134.819
134.743
134.691
134.735
134.564
134.562
134.497
134.696
134.515
134.591
134.594
134.708
134.702
134.741
134.673
134.681
134.645
134.568
134.508
134.305
134.717
134.635
134.521
134.621
134.668
134.685
134.732
134.622
134.686
134.668
134.534
134.565
134.694
134.704
134.692
134.695
134.729
134.732
134.704
134.691
134.747
134.675
134.609
134.727
134.58
134.648
134.663
134.617
134.637
134.621
134.602
134.609
134.711
134.742
134.722
134.733
134.715
134.712
134.729
134.731
134.66
134.729
134.509
134.532
134.554
134.565
134.671
134.632
134.712
134.459
134.547
134.472
134.637
134.695
134.785
134.674
134.542
134.578
134.513
134.672
134.679
134.678
134.732
134.811
134.658
134.687
134.782
134.667
134.675
134.757
134.674
134.762
134.672
134.592
134.608
134.71
134.671
134.471
134.561
134.547
134.611
134.675
134.646
134.639
134.683
134.618
134.68
134.68
134.672
134.682
134.635
134.662
134.704
134.667
134.681
134.709
134.686
134.702
134.72
134.68
134.577
134.671
134.594
134.762
134.648
134.775
134.646
134.661
134.72
134.677
134.79
134.602
134.774
134.691
134.693
134.714
134.746
134.684
134.68
134.699
134.688
134.708
134.678
134.66
134.667
134.743
134.762
134.676
134.741
134.653
134.657
134.627
134.679
134.669
134.622
134.656
134.665
134.666
134.695
134.673
134.687
134.651
134.665
134.672
134.647
134.652
134.667
134.615
134.723
134.615
134.729
134.639
134.676
134.706
134.678
134.697
134.676
134.694
134.678
134.685
134.656
134.675
134.679
134.646
134.659
134.674
134.653
134.659
134.673
134.667
134.669
134.626
134.738
134.642
134.632
134.654
134.718
134.661
134.647
134.698
134.81
134.669
134.676
134.732
134.695
134.738
134.75
134.759
134.716
134.737
134.739
134.692
134.681
134.761
134.69
134.743
134.659
134.744
134.613
134.579
134.682
134.651
134.6
134.646
134.701
134.712
134.861
134.764
134.832
134.776
134.826
134.719
134.6
134.627
134.655
134.649
134.624
134.717
134.324
134.814
134.818
134.833
134.721
134.66
134.594
134.654
134.608
134.728
134.688
134.74
134.708
134.739
134.729
134.716
134.733
134.763
134.692
134.847
134.768
134.776
134.734
134.713
134.709
134.766
134.72
134.587
134.429
134.717
134.651
134.619
134.716
134.696
134.445
134.649
134.751
134.666
134.675
134.608
134.677
134.715
134.709
134.688
134.679
134.699
134.658
134.63
134.784
134.764
134.672
134.748
134.687
134.597
134.75
134.733
134.677
134.725
134.67
134.742
134.752
134.674
134.696
134.649
134.855
134.678
134.809
134.664
134.735
134.668
134.644
134.638
134.733
134.694
134.764
134.727
134.769
134.782
134.752
134.766
134.791
134.669
134.604
134.587
134.658
134.654
134.615
134.56
134.613
134.713
134.556
134.558
134.693
134.625
134.664
134.67
134.659
134.627
134.527
134.661
134.705
134.696
134.696
134.7
134.698
134.714
134.698
134.719
134.714
134.721
134.686
134.675
134.636
134.711
134.771
134.709
134.73
134.708
134.703
134.737
134.656
134.694
134.63
134.664
134.848
134.802
134.851
134.824
134.827
134.757
134.619
134.6
134.653
134.683
134.592
134.659
134.629
134.687
134.66
134.525
134.621
134.669
134.646
134.674
134.628
134.662
134.662
134.654
134.653
134.731
134.749
134.766
134.751
134.751
134.651
134.649
134.673
134.689
134.684
134.695
134.684
134.77
134.771
134.749
134.757
134.777
134.708
134.643
134.731
134.721
134.754
134.699
134.715
134.688
134.727
134.716
134.697
134.698
134.759
134.765
134.72
134.753
134.651
134.772
134.751
134.768
134.694
134.732
134.776
134.689
134.686
134.709
134.7
134.644
134.69
134.71
134.672
134.656
134.677
134.728
134.654
134.623
134.755
134.652
134.635
134.694
134.644
134.666
134.635
134.658
134.663
134.64
134.574
134.672
134.608
134.706
134.665
134.616
133.961
134.745
134.872
134.766
134.646
134.798
134.51
134.603
134.714
134.647
134.656
134.647
134.794
134.622
134.598
134.643
134.562
134.653
134.666
134.626
134.579
134.525
134.658
134.654
134.573
134.644
134.56
134.57
134.591
134.438
134.339
134.182
134.237
134.163
134.631
134.768
134.634
134.629
134.663
134.753
134.602
134.631
134.676
134.645
134.556
134.59
134.544
134.527
134.619
134.644
134.709
134.736
134.701
134.701
134.593
134.713
134.685
134.629
134.68
134.657
134.751
134.681
134.639
134.766
134.635
134.641
134.697
134.658
134.628
134.585
134.62
134.634
134.594
134.636
134.655
134.695
134.719
134.68
134.661
134.664
134.662
134.642
134.428
134.75
134.688
134.661
134.716
134.733
134.826
134.738
134.697
134.768
134.712
134.723
134.671
134.698
134.663
134.744
134.695
134.692
134.693
134.477
134.676
134.662
134.656
134.681
134.629
134.779
134.764
134.737
134.768
134.694
134.689
134.676
134.711
134.71
134.738
134.685
134.775
134.75
134.767
134.758
134.78
134.779
134.721
134.741
134.719
134.745
134.741
134.739
134.717
134.723
134.742
134.709
134.692
134.708
134.681
134.695
134.713
134.7
134.703
134.721
134.648
134.634
134.716
134.625
134.668
134.636
134.748
134.574
134.68
134.604
134.602
134.604
134.646
134.678
134.667
134.641
134.73
134.659
134.71
134.652
134.8
134.562
134.705
134.76
134.678
134.657
134.736
134.69
134.732
134.828
134.683
134.658
134.662
134.687
134.666
134.679
134.656
134.687
134.689
134.682
134.659
134.632
134.696
134.701
134.665
134.697
134.659
134.837
134.656
134.767
134.743
134.665
134.691
134.671
134.807
134.725
134.806
134.69
134.711
134.79
134.746
134.63
134.639
134.718
134.688
134.61
134.724
134.78
134.716
134.715
134.659
134.719
134.796
134.786
134.751
134.747
134.728
134.769
134.814
134.717
134.707
134.695
134.749
134.722
134.701
134.772
134.797
134.714
134.772
134.726
134.725
134.733
134.567
134.607
134.593
134.657
134.62
134.537
134.716
134.661
134.673
134.811
134.847
134.793
134.627
134.736
134.686
134.703
134.726
134.777
134.713
134.699
134.781
134.653
134.68
134.963
134.656
134.716
134.772
134.809
134.678
134.676
134.68
134.775
134.71
134.756
134.783
134.731
134.951
134.728
134.794
134.832
134.837
134.828
134.591
134.705
134.598
134.653
134.701
134.592
134.69
134.653
134.755
134.718
134.637
134.569
134.635
134.66
134.805
134.491
134.561
134.684
134.666
134.713
134.743
134.571
134.667
134.67
134.679
134.698
134.728
134.544
134.683
134.691
134.691
134.678
134.716
134.613
134.784
134.592
134.644
134.6
134.846
134.548
134.532
134.6
134.583
134.564
134.525
134.577
134.528
134.609
134.59
134.788
134.653
134.844
134.602
134.54
134.695
134.691
134.691
134.696
134.703
134.701
134.693
134.692
134.68
134.685
134.703
134.708
134.697
134.709
134.716
134.691
134.7
134.7
134.708
134.781
134.708
134.737
134.706
134.775
134.712
134.715
134.732
134.761
134.785
134.713
134.715
134.672
134.624
134.616
134.659
134.685
134.657
134.772
134.701
134.62
134.714
134.744
134.848
134.81
134.685
134.591
134.603
134.437
134.289
134.609
134.577
134.61
134.698
134.614
134.685
134.584
134.432
134.62
134.59
134.583
134.61
134.612
134.671
134.681
134.597
134.675
134.678
134.675
134.688
134.702
134.637
134.616
134.623
134.626
134.659
134.632
134.597
134.63
134.637
134.633
134.629
134.636
134.523
134.665
134.767
134.729
134.756
134.705
134.739
134.742
134.731
134.701
134.701
134.657
134.687
134.705
134.683
134.718
134.623
134.729
134.688
134.737
134.794
134.689
134.794
134.763
134.706
134.715
134.748
134.736
134.776
134.677
134.747
134.713
134.668
134.734
134.725
134.698
134.74
134.722
134.655
134.687
134.633
134.375
134.701
134.758
134.831
134.796
134.84
134.643
134.52
134.714
134.756
134.624
134.283
134.665
134.652
134.659
134.687
134.692
134.771
134.7
134.911
134.658
134.701
134.713
134.78
134.803
134.71
134.71
134.752
134.7
134.761
134.725
134.727
134.722
134.759
134.673
134.643
134.661
134.824
134.509
134.368
134.706
134.647
134.51
134.64
134.685
134.699
134.693
134.528
134.726
134.578
134.62
134.697
134.727
134.667
134.705
134.608
134.612
134.551
134.667
134.619
134.574
134.843
134.799
134.781
134.72
134.802
134.691
134.691
134.759
134.698
134.792
134.714
134.717
134.747
134.811
134.775
134.672
134.805
134.678
134.618
134.607
134.729
134.722
134.768
134.659
134.678
134.404
134.682
134.694
134.619
134.516
134.67
134.694
134.656
134.669
134.675
134.621
134.688
134.696
134.677
134.654
134.678
134.703
134.69
134.682
134.643
134.681
134.676
134.672
134.654
134.652
134.685
134.665
134.729
134.664
134.684
134.624
134.643
134.659
134.632
134.636
134.683
134.677
134.606
134.63
134.797
134.721
134.729
134.65
134.586
134.872
134.635
134.643
134.772
134.694
134.479
134.721
134.644
134.622
134.606
134.661
134.669
134.61
134.606
134.609
134.653
134.661
134.658
134.605
134.611
134.64
134.723
134.742
134.682
134.736
134.709
134.665
134.742
134.723
134.686
134.744
134.7
134.675
134.688
134.696
134.633
134.718
134.628
134.63
134.585
134.62
134.68
134.678
134.681
134.588
134.645
134.619
134.622
134.754
134.647
134.758
134.637
134.642
134.606
134.677
134.645
134.645
134.636
134.621
134.656
134.649
134.632
134.648
134.643
134.659
134.642
134.646
134.655
134.658
134.663
134.675
134.675
134.718
134.648
134.659
134.65
134.655
134.649
134.622
134.659
134.664
134.63
134.649
134.647
134.648
134.649
134.65
134.661
134.659
134.68
134.75
134.658
134.641
134.652
134.657
134.677
134.672
134.729
134.821
134.782
134.681
134.653
134.688
134.674
134.756
134.681
134.679
134.711
134.673
134.709
134.688
134.681
134.673
134.672
134.692
134.679
134.641
134.683
134.677
134.662
134.64
134.623
134.656
134.667
134.689
134.688
134.646
134.607
134.679
134.639
134.636
134.657
134.686
134.657
134.68
134.67
134.687
134.682
134.684
134.705
134.688
134.694
134.695
134.717
134.683
134.687
134.719
134.708
134.694
134.697
134.721
134.686
134.684
134.668
134.686
134.673
134.68
134.69
134.668
134.672
134.669
134.69
134.675
134.682
134.735
134.687
134.661
134.692
134.692
134.725
134.78
134.672
134.77
134.672
134.684
134.693
134.732
134.783
134.702
134.767
134.692
134.697
134.673
134.669
134.683
134.688
134.67
134.68
134.679
134.692
134.703
134.678
134.66
134.663
134.652
134.657
134.656
134.673
134.698
134.689
134.677
134.679
134.687
134.69
134.659
134.665
134.662
134.676
134.655
134.683
134.666
134.664
134.672
134.661
134.669
134.677
134.672
134.679
134.682
134.663
134.686
134.655
134.649
134.644
134.647
134.64
134.654
134.647
134.674
134.652
134.672
134.645
134.641
134.651
134.673
134.659
134.677
134.666
134.66
134.674
134.644
134.636
134.639
134.643
134.643
134.646
134.659
134.652
134.647
134.648
134.652
134.657
134.653
134.674
134.713
134.665
134.744
134.662
134.679
134.704
134.659
134.669
134.668
134.661
134.674
134.683
134.692
134.668
134.662
134.656
134.658
134.668
134.658
134.668
134.66
134.671
134.655
134.735
134.693
134.658
134.7
134.662
134.657
134.65
134.657
134.653
134.676
134.671
134.678
134.662
134.675
134.681
134.668
134.681
134.673
134.656
134.658
134.667
134.648
134.643
134.649
134.649
134.641
134.65
134.646
134.657
134.681
134.679
134.663
134.643
134.639
134.641
134.632
134.671
134.652
134.727
134.692
134.694
134.65
134.664
134.645
134.648
134.653
134.642
134.663
134.652
134.677
134.666
134.674
134.655
134.658
134.65
134.648
134.643
134.659
134.655
134.665
134.649
134.622
134.716
134.63
134.634
134.711
134.647
134.651
134.654
134.717
134.632
134.696
134.651
134.634
134.683
134.754
134.72
134.704
134.729
134.661
134.739
134.699
134.719
134.742
134.708
134.729
134.682
134.743
134.661
134.693
134.683
134.701
134.647
134.688
134.731
134.656
134.699
134.741
134.703
134.67
134.686
134.742
134.638
134.709
134.71
134.698
134.692
134.652
134.649
134.66
134.644
134.698
134.699
134.652
134.703
134.654
134.664
134.716
134.704
134.702
134.676
134.706
134.661
134.541
134.594
134.657
134.61
134.543
134.595
134.64
134.581
134.778
134.67
134.59
134.796
134.62
134.636
134.586
134.671
134.802
134.683
134.803
134.596
134.655
134.521
134.593
134.602
134.57
134.53
134.608
134.62
134.648
134.613
134.641
134.625
134.66
134.621
134.649
134.648
134.682
134.703
134.511
134.681
134.639
134.64
134.671
134.632
134.688
134.727
134.697
134.662
134.649
134.647
134.62
134.626
134.539
134.642
134.634
134.639
134.546
134.695
134.855
134.733
134.856
134.776
134.831
134.736
134.728
134.64
134.741
134.744
134.811
134.785
134.538
134.687
134.647
134.739
134.703
134.658
134.855
134.803
134.717
134.561
134.62
134.55
134.445
134.649
134.635
134.619
133.992
134.531
134.63
134.855
134.756
134.105
134.274
134.532
134.617
134.636
134.61
134.574
134.419
134.592
134.667
134.847
134.77
134.588
133.377
134.511
134.408
134.554
134.556
134.456
134.775
134.694
134.212
134.859
134.662
134.82
134.903
134.891
134.626
134.711
134.885
134.884
134.434
134.772
134.662
134.534
134.726
134.771
134.758
134.755
134.749
134.752
134.775
134.778
134.773
134.739
134.773
134.77
134.735
134.691
134.756
134.739
134.745
134.772
134.746
134.526
134.769
134.743
134.759
134.651
134.622
134.662
134.634
134.637
134.638
134.654
134.694
134.69
134.7
134.703
134.676
134.673
134.673
134.668
134.634
134.664
134.7
134.667
134.661
134.659
134.545
134.587
134.641
134.582
134.548
134.586
134.579
134.615
134.793
134.675
134.596
134.62
134.779
134.601
134.604
134.688
134.768
134.674
134.627
134.781
134.607
134.541
134.581
134.595
134.567
134.535
134.6
134.573
134.629