/*--------------------------------*- C++ -*----------------------------------*\
  =========                 |
  \\      /  F ield         | OpenFOAM: The Open Source CFD Toolbox
   \\    /   O peration     | Website:  https://openfoam.org
    \\  /    A nd           | Version:  10
     \\/     M anipulation  |
\*---------------------------------------------------------------------------*/
FoamFile
{
    format      ascii;
    class       volVectorField;
    location    "0.1";
    object      U;
}
// * * * * * * * * * * * * * * * * * * * * * * * * * * * * * * * * * * * * * //

dimensions      [0 1 -1 0 0 0 0];

internalField   nonuniform List<vector> 
115093
(
(0.0171185 -0.0169891 0.0132216)
(0.041246 0.0103132 -0.0183561)
(-0.0202895 -0.0136423 0.0207087)
(0.0785605 0.0140097 0.00838948)
(-0.069142 -0.00592128 -0.0145651)
(0.127232 0.0121805 0.00350178)
(-0.151546 0.011609 -0.013705)
(0.221833 0.00502236 -0.0462231)
(0.00906877 -0.011322 -0.0173098)
(0.0423366 0.0139578 0.0233944)
(-0.00483238 -0.0194117 -0.0121735)
(0.0706464 0.0212728 0.0146325)
(-0.0583947 -0.00704625 -0.0228016)
(0.130461 0.0158535 -0.00219579)
(-0.150007 0.0156338 -0.00571779)
(0.225188 0.00206723 -0.0807962)
(0.0223403 -0.0184256 -0.0105995)
(0.0331692 0.00366451 0.00515757)
(-0.0127212 -0.00567101 -0.00645592)
(0.0907119 0.0130794 0.00528423)
(-0.0744723 0.00819547 -0.0190927)
(0.149514 0.00318722 -0.00348663)
(-0.164716 0.0276777 -0.00391275)
(0.240326 -0.00763436 -0.0808231)
(-0.0160811 -0.0151144 -0.0134961)
(0.0547727 0.0189134 0.000254995)
(0.00468365 -0.0305773 -0.0179348)
(0.0842334 0.0312737 0.00840797)
(-0.068114 -0.00121906 -0.0241408)
(0.149793 0.0168943 -0.00314796)
(-0.161404 0.0205199 -0.000437473)
(0.245212 0.0142024 -0.0807234)
(-0.00133573 -0.0291403 -0.0110791)
(0.119053 0.0290226 -0.00520015)
(-0.088903 0.00571842 -0.00615815)
(0.171098 0.00793918 -0.0458013)
(-0.166269 0.0362057 0.0385612)
(0.253575 0.00872225 -0.0915503)
(0.0170598 -0.022887 -0.0200618)
(0.0547107 0.0280825 0.0299163)
(0.0161608 -0.00798849 -0.0204102)
(0.0383874 0.0160103 0.019538)
(-0.0705019 -0.0337963 -0.0225873)
(0.137455 0.0676844 0.0210912)
(-0.200173 -0.0434395 -0.0451334)
(0.299016 0.00664911 0.0190025)
(0.0498035 -0.0392013 0.0250345)
(0.0546804 0.0382519 -0.023605)
(-0.0284159 -0.0394024 0.00712038)
(0.0756071 0.00898381 0.00293597)
(-0.0918671 -0.0055413 -0.0196846)
(0.163252 0.00385199 0.0229441)
(-0.237185 0.0210354 -0.0175869)
(0.329349 -0.0301423 -0.00181969)
(0.032715 -0.00169242 -0.0043586)
(0.055902 -0.0187967 0.0159781)
(-0.0133942 -0.00674233 -0.0359836)
(0.0717533 0.00159266 0.0228602)
(-0.0767063 0.00401109 -0.02827)
(0.160801 0.0132925 0.0215065)
(-0.232499 0.0199886 -0.00879916)
(0.328005 0.0164691 -0.0515776)
(0.0673545 -0.0232159 -0.00665885)
(0.0344056 0.00563131 -0.106441)
(-0.00895095 -0.000744357 0.032273)
(0.0858812 -0.00369197 0.00775633)
(-0.080215 0.0250104 -0.00803616)
(0.178996 -0.037804 0.00332585)
(-0.23736 0.0694903 -0.000799725)
(0.335468 0.00178773 -0.0735318)
(0.0336271 -0.00358719 -0.0254908)
(0.0941185 -0.00904971 0.0392292)
(-0.0392005 0.00743224 -0.153575)
(0.0968052 -0.00793206 0.0929003)
(-0.112424 0.0355829 -0.0352789)
(0.208598 -0.0277325 0.0110061)
(-0.192105 0.0720524 -0.00472806)
(0.302859 0.00032245 -0.0527246)
(0.0475902 -0.00662521 -0.0312097)
(0.0911137 -0.000856956 0.0442692)
(0.0266411 -0.0487495 -0.0363245)
(0.0364837 0.0572432 0.0656874)
(0.0131715 -0.055601 -0.10359)
(0.0295785 0.05163 0.183906)
(0.0106447 -0.0763094 -0.0900575)
(0.0603967 0.0261427 -0.0598238)
(-0.131415 -0.0321232 -0.030004)
(0.223195 0.0251943 0.0576345)
(-0.394724 -0.00628303 -0.0607268)
(0.526485 0.0241146 0.0456411)
(0.0231493 -0.023889 0.0222397)
(0.039934 0.00742266 -0.0507113)
(-0.0370155 -0.0407574 0.0808175)
(0.0972474 -0.00996829 0.130503)
(-0.0584035 -0.0282199 -0.145027)
(0.142299 0.00405588 0.178763)
(-0.179444 0.0338851 -0.226448)
(0.246745 -0.0224534 0.114587)
(-0.397017 0.0826309 -0.084375)
(0.514771 -0.0020025 0.0633459)
(0.0207463 0.00564111 -0.0782871)
(0.0170781 -0.00756239 0.138066)
(0.0417477 -0.0658269 -0.0233346)
(0.0519027 0.0175479 0.0879474)
(-0.0354499 -0.0146396 -0.141828)
(0.135922 0.0143457 0.192271)
(-0.122805 0.0304389 -0.223332)
(0.249394 -0.0670269 -0.0451338)
(-0.383083 0.107048 0.0266395)
(0.475299 0.00186644 -0.0317585)
(0.0707785 -0.0668649 -0.0399936)
(0.00329209 -0.105178 0.0792282)
(0.00182505 0.00617014 -0.0512164)
(0.0994 0.0141777 0.0800638)
(-0.0720948 0.019752 -0.132116)
(0.169917 -0.0144609 0.19053)
(-0.184774 0.065312 -0.20871)
(0.286546 -0.0780453 -0.0713694)
(-0.333617 0.117367 0.0521981)
(0.442818 -0.0253726 -0.0183014)
(0.0537438 0.285009 0.272089)
(-0.255827 0.0706211 0.0585314)
(0.058651 -0.156896 -0.0767173)
(0.0472887 0.0895503 0.0864018)
(-0.0675368 -0.00272859 -0.14216)
(0.185593 0.0179358 0.189384)
(-0.265953 0.0289471 -0.192161)
(0.345329 0.013015 -0.0106695)
(-0.320494 0.0536703 0.0180373)
(0.420404 0.00668927 -0.0590845)
(0.0148042 0.0499897 0.329805)
(-0.0973652 0.502767 0.347057)
(-0.306656 -0.171383 -0.00148361)
(0.208798 0.0842619 0.0535204)
(-0.125912 0.00797668 -0.0866211)
(0.194284 -0.0338579 -0.0440018)
(-0.23737 0.090676 0.0012134)
(0.342789 -0.0122528 -0.0236048)
(-0.331606 0.0649002 0.0371413)
(0.433145 0.00565017 -0.0516748)
(0.0505189 0.0222199 0.313161)
(0.0167908 0.10622 0.418452)
(-0.283489 0.00767691 -0.0264202)
(0.231801 0.0131677 0.0723187)
(0.0268916 -0.033197 0.0240639)
(0.0444245 0.0435666 -0.00225134)
(-0.0240121 -0.0438486 0.0142071)
(0.101235 0.0915197 0.0452937)
(-0.112879 -0.0882855 -0.0842605)
(0.127501 0.129281 0.228043)
(-0.120672 -0.172576 -0.219349)
(0.253125 0.147953 0.319943)
(-0.397856 -0.141834 -0.240562)
(0.486091 0.148492 -0.00501807)
(0.0179115 -0.0834911 -0.013259)
(0.0410126 0.117452 0.0266613)
(0.0232328 -0.154537 -0.0124309)
(0.0398506 0.246397 -0.00255628)
(-0.00684796 -0.15505 0.0181471)
(0.100979 -0.0529874 0.212878)
(-0.14074 -0.0510735 -0.269644)
(0.289561 0.0502207 0.3608)
(-0.263219 -0.0459809 -0.426493)
(0.408236 0.104672 -0.0195133)
(0.0859555 0.00206363 0.044563)
(-0.0335452 -0.0381799 -0.0136074)
(0.0798471 0.0669513 0.0788232)
(-0.149903 0.0197829 0.0302425)
(0.221451 0.226113 0.277916)
(-0.114251 0.180278 0.167046)
(-0.0981506 -0.180955 -0.292547)
(0.258983 0.0544154 0.358826)
(-0.241215 -0.0222818 -0.481128)
(0.404887 0.0243568 0.0025215)
(-0.0276348 -0.064839 -0.078549)
(0.0797725 0.0967038 0.148368)
(-0.200153 -0.0538888 -0.0624261)
(0.0918948 0.29013 0.381542)
(0.0647422 -0.103127 0.268526)
(-0.149888 0.567172 0.430351)
(-0.369774 -0.154928 -0.218625)
(0.402336 -0.0923918 0.33575)
(-0.285577 0.105473 -0.395843)
(0.427868 -0.078062 -0.0238858)
(0.155103 -0.0560189 0.12511)
(-0.202149 0.0363434 0.0667664)
(0.183192 0.267464 0.25153)
(0.0106016 0.0131184 0.444509)
(0.0523622 0.041633 0.250959)
(-0.0130938 0.0430493 0.518279)
(0.172049 0.368806 0.0287593)
(-0.106912 -0.176492 0.308204)
(-0.355353 0.187095 -0.216961)
(0.428265 -0.0983896 -0.0154281)
(0.0847233 0.290294 0.289208)
(-0.0231691 0.28779 0.327148)
(0.075866 0.00511781 0.353347)
(0.0128196 0.0745443 0.428345)
(0.0750566 0.0309673 0.276201)
(0.0351628 0.0153654 0.496506)
(0.338431 -0.0302377 0.122161)
(-0.152127 0.0614343 0.00474887)
(-0.276986 0.0371353 -0.0301444)
(0.37399 -0.0197343 0.00229782)
(0.0307368 0.204735 0.13888)
(-0.0706236 0.177878 0.536146)
(0.0385037 0.0169109 0.310347)
(0.00829583 0.0625166 0.458551)
(0.112687 0.0029397 0.232185)
(0.00264365 -0.143318 0.525302)
(-0.448103 0.232016 -0.183965)
(0.474181 0.0522729 -0.0969099)
(-0.351146 0.0330371 0.0945207)
(0.470537 -0.0333783 -0.0620743)
(-0.00734832 0.0704136 0.369107)
(-0.0363243 0.112776 0.197041)
(-0.0293198 0.0128208 0.471942)
(0.0433344 0.081523 0.37832)
(0.220783 -0.147526 0.272604)
(-0.0821956 -0.168119 0.125745)
(-0.253118 0.244602 -0.182293)
(0.329634 -0.0276415 0.0381664)
(-0.328793 0.0817738 -0.0051441)
(0.426521 -0.00093088 -0.0259324)
(0.0447092 0.0374709 0.425495)
(-0.0335965 0.0727545 0.360812)
(-0.0242464 0.00563601 0.431444)
(0.035589 0.0307986 0.434568)
(-0.28349 -0.0255385 -0.0886487)
(0.271448 0.103159 -0.101635)
(0.118934 0.310998 0.0304758)
(-0.128938 -0.321559 -0.0625182)
(0.249869 0.425736 0.0602866)
(-0.41561 -0.360033 -0.0495732)
(0.0477386 -0.0738248 0.0218016)
(0.0234885 0.0882434 -0.0153844)
(0.0550171 -0.0782829 0.0444866)
(-0.0544456 0.0742436 -0.0774494)
(0.119287 -0.0447255 0.0606186)
(-0.196183 0.183738 0.13343)
(0.293083 0.0601853 0.121125)
(-0.188259 0.61682 0.535536)
(-0.497486 -0.405439 -0.341754)
(0.703103 0.0632253 0.0168028)
(0.0130396 0.00432039 -0.0185953)
(0.049347 0.00604433 0.0633634)
(-0.0585787 0.0588551 -0.0936892)
(0.120754 0.161058 0.127437)
(-0.230345 -0.192905 -0.121936)
(-0.0236042 0.360621 0.427202)
(0.145449 0.0224055 0.0865025)
(-0.0255128 0.182764 0.628458)
(0.427337 0.149 -0.12527)
(0.0700094 0.0384563 0.464062)
(0.0584105 -0.112423 -0.0100854)
(0.0424308 0.175945 0.0685808)
(-0.18534 -0.1071 -0.0628468)
(0.0510757 0.412584 0.330743)
(0.0269299 0.221096 -0.0474286)
(-0.126991 0.148983 0.625563)
(0.0578479 0.0474271 0.0579498)
(0.0291623 0.0567025 0.662658)
(0.485223 0.0453923 -0.122858)
(0.153557 0.0191257 0.52054)
(0.0546624 0.0896223 0.033086)
(-0.123947 0.0759013 0.0579924)
(0.116771 0.225584 0.278504)
(0.0251923 0.16625 0.148926)
(0.110022 0.116003 0.373775)
(-0.176159 0.105281 0.149324)
(-0.0299258 -0.0421874 0.264095)
(0.121777 -0.105077 0.580267)
(0.525798 -0.0253073 -0.0998415)
(0.0669789 -0.0190082 0.446221)
(-0.0613551 -0.0751381 -0.0215955)
(-0.00659966 0.314163 0.33996)
(0.0950527 0.0694905 0.101063)
(0.0751374 0.0849456 0.478429)
(0.0446892 0.0489343 0.417288)
(-0.0165056 0.0277051 0.488166)
(-0.0227956 -0.0783464 -0.0035444)
(-0.114419 -0.270517 0.705357)
(-0.484279 0.405572 -0.438914)
(0.675356 0.0249764 0.00480186)
(0.016299 0.257024 0.19826)
(0.0548396 0.165525 0.246917)
(0.0713403 0.0636189 0.448371)
(0.0236044 0.043263 0.460215)
(0.0602087 0.00523604 0.401026)
(0.0603513 -0.0175235 0.460051)
(0.167285 -0.0185967 0.0650012)
(-0.00290534 -0.392643 0.341584)
(-0.446083 0.413048 -0.302289)
(0.499057 -0.0723704 0.090848)
(0.123151 0.297628 0.20909)
(0.0406174 0.223904 0.433855)
(0.00560951 -0.00690901 0.415791)
(0.0537887 0.0245737 0.421522)
(0.0927049 -0.0255566 0.370459)
(-0.000832295 -0.0609621 0.201189)
(0.252105 -0.0452308 0.276097)
(-0.0881822 0.0352044 -0.0552171)
(-0.318526 0.0803199 0.00793033)
(0.407343 -0.0236198 -0.0194211)
(-0.0504098 0.277398 0.285041)
(0.0480722 0.236721 0.422049)
(-0.0394472 0.240271 0.506041)
(0.155851 0.0171436 0.376556)
(0.121623 -0.0308774 0.107296)
(-0.0520757 -0.184334 0.5732)
(-0.427587 0.291555 -0.187327)
(0.490446 0.0198402 0.0875524)
(-0.387349 0.0481615 -0.0557061)
(0.501137 -0.00521988 0.00541815)
(0.0617475 0.0362479 0.290604)
(-0.0634038 0.00448129 0.274303)
(0.0594443 0.00914795 0.493334)
(0.122267 0.0167532 0.101958)
(0.246222 -0.142035 0.36551)
(-0.0496504 -0.144183 -0.120487)
(0.159411 0.351632 -0.00783649)
(-0.129917 -0.421484 -0.0175311)
(0.277619 0.509316 0.0244481)
(-0.24915 -0.576132 0.00326741)
(0.0320761 -0.0534499 -0.00774287)
(0.0673884 0.0993459 0.0123019)
(-0.0822345 -0.119343 0.00487868)
(0.100349 0.229619 -0.0828893)
(-0.234596 -0.197364 0.120197)
(-0.0221049 0.506343 0.356689)
(0.198864 -0.0412164 0.0175259)
(-0.0597891 0.721258 0.159493)
(0.495323 -0.236423 0.180192)
(0.0448861 0.555316 -0.011976)
(0.055195 -0.11171 0.0275542)
(-0.0354202 0.214943 -0.00450373)
(0.142945 -0.0863589 -0.0494099)
(-0.202664 0.137999 0.131981)
(0.177784 0.147127 0.343972)
(-0.0632756 0.237547 0.186418)
(0.0313805 0.330861 0.306599)
(-0.197496 0.459743 0.384999)
(0.273411 -0.0924493 -0.067612)
(-0.420914 0.751494 0.654835)
(-0.465698 -0.282612 -0.250446)
(0.14306 0.0539876 -0.0966497)
(-0.281124 0.0555639 0.158357)
(0.207732 0.229091 0.299079)
(-0.0918285 0.361346 0.0383628)
(0.0403406 0.00517561 -0.000930905)
(-0.0530388 0.358253 0.442911)
(-0.0110309 0.127469 0.438233)
(-0.0777762 0.0657928 0.577902)
(0.0247853 0.0371487 0.142206)
(-0.361343 0.129241 0.90284)
(-0.491393 -0.00732012 -0.191496)
(-0.25257 0.032667 0.126984)
(0.0856548 0.276787 0.38349)
(0.0374084 0.0389426 0.0296811)
(-0.0244491 0.485031 0.192623)
(-0.0952277 0.458465 0.213561)
(-0.154364 0.249931 0.516494)
(-0.0119474 -0.023291 0.465495)
(0.00885254 -0.20776 0.522018)
(0.230058 0.0939563 -0.119126)
(-0.391743 -0.238981 0.85798)
(-0.463035 0.287817 -0.259704)
(0.160128 0.273089 0.352847)
(0.0310105 0.093443 0.110968)
(-0.0949513 0.443347 0.213712)
(-0.148044 0.313726 0.289455)
(-0.00509126 0.112421 0.455553)
(-0.0704161 0.122807 0.401257)
(0.0130715 -0.13067 0.392747)
(-0.0754942 -0.0957621 0.193039)
(0.545312 0.068711 0.0976282)
(0.078724 -0.4746 -0.0288181)
(-0.542075 0.258549 0.086119)
(0.0326389 0.0333247 0.110405)
(-0.0130082 0.419575 0.219842)
(-0.0998162 0.305998 0.298921)
(-0.0299771 0.154835 0.447857)
(0.0237329 -0.0560333 0.365695)
(0.0209327 -0.176529 0.29621)
(0.0389344 -0.19652 0.16998)
(-0.113963 -0.263865 0.665878)
(-0.388321 0.487767 -0.202429)
(0.609922 -0.0490946 0.101704)
(-0.578926 0.0426029 -0.0626061)
(0.0134544 0.340015 0.204142)
(-0.0671858 0.260792 0.295489)
(0.0300525 0.117808 0.393708)
(0.0489909 -0.0338832 0.289336)
(0.0189552 -0.257247 0.229011)
(-0.060008 -0.266146 0.40349)
(0.432852 0.0250649 0.0788663)
(0.0390796 -0.334177 -0.00103399)
(-0.392837 0.290758 -0.0128426)
(0.47038 -0.126122 -0.0274226)
(-0.461383 0.132973 0.0575582)
(0.180435 0.126089 0.0849937)
(0.0892996 0.197292 0.224806)
(0.180042 0.064787 0.108934)
(0.0559934 -0.173341 0.260961)
(0.0203399 -0.222429 0.204249)
(0.067458 -0.240975 0.152846)
(-0.334743 0.340208 0.00860651)
(0.449882 -0.031906 0.0510185)
(-0.409459 0.0982836 -0.0153865)
(0.503937 -0.0209897 0.00891199)
(-0.471503 0.0629719 0.0137122)
(0.165089 -0.0739235 0.136376)
(0.0489387 -0.140399 0.353433)
(0.398952 -0.0984723 0.123698)
(0.0208644 -0.170218 -0.00733977)
(0.150773 0.329208 -0.0245368)
(-0.123699 -0.415993 0.0375928)
(0.275197 0.52101 -0.0499064)
(-0.25615 -0.577727 0.0442029)
(0.061115 -0.0630771 0.0332048)
(0.0388088 0.0957178 -0.0573503)
(-0.0554197 -0.121664 0.0458993)
(0.0796004 0.196428 -0.0330167)
(-0.275524 -0.255786 0.0440867)
(0.133378 0.548366 0.0842782)
(0.173105 -0.0423193 0.0103053)
(-0.0505557 0.744866 0.0108623)
(0.648442 -0.208193 0.0171233)
(0.0859182 0.570565 0.0249998)
(0.0177747 -0.0996827 -0.0106205)
(-0.0185615 0.205586 0.00201195)
(0.100368 -0.0785549 0.0114436)
(-0.24149 0.152362 0.015901)
(0.388845 0.187781 0.111413)
(0.0187298 0.29686 0.0680625)
(0.139616 0.42522 0.069943)
(-0.0913293 0.667237 0.0200981)
(0.0532755 0.142974 0.108484)
(-0.448111 0.932418 -0.0688984)
(-0.473067 -0.256032 0.282875)
(0.182807 0.0375628 0.0903759)
(-0.298762 0.0846056 -0.172121)
(0.401921 0.249543 0.00792419)
(-0.147482 0.394682 0.0213193)
(0.0640107 0.119527 0.0204201)
(-0.18876 0.559555 0.0586713)
(-0.0722838 0.414818 0.136581)
(0.187774 0.00766574 0.124638)
(-0.027392 0.0864989 -0.0123662)
(-0.234296 0.29485 0.0531492)
(-0.402336 -0.0105474 -0.0194065)
(-0.289393 0.00470508 -0.0964588)
(0.288075 0.315856 -0.0149084)
(0.00498194 0.104412 0.0812378)
(-0.0559443 0.531067 -0.0754909)
(-0.258048 0.460748 -0.0158215)
(-0.0433434 0.440673 0.0588859)
(0.608487 -0.0649869 -0.0968757)
(0.424872 -0.248927 0.158438)
(-0.00108022 -0.143912 0.146441)
(-0.439593 -0.347832 -0.0523557)
(-0.468226 0.2663 0.287206)
(0.349528 0.320015 -0.00400875)
(0.000281922 0.150399 0.0714938)
(-0.156759 0.509355 0.0269707)
(-0.0171415 0.363422 -0.0197266)
(0.111464 0.213355 -0.0508102)
(0.914592 0.0697546 -0.137487)
(1.19472 -0.33505 -0.0163798)
(-0.0656802 -0.374784 0.409933)
(0.698582 0.0271627 0.0604365)
(0.132031 -0.471152 0.0516951)
(-0.551433 0.24747 -0.0699419)
(0.0992256 0.127527 0.0543824)
(-0.0287297 0.465932 -0.0623805)
(-0.0667627 0.302817 -0.0418071)
(0.159298 0.151035 -0.0396185)
(0.869186 0.159895 0.137729)
(1.38104 -0.47843 -0.285683)
(-0.0394953 -0.29528 -0.0791503)
(-0.0454438 -0.310121 -0.023445)
(-0.405033 0.522792 0.231737)
(0.62367 -0.0719069 -0.122643)
(-0.596375 0.028809 0.116379)
(0.152082 0.33969 0.0473431)
(0.0850048 0.330615 0.0818771)
(0.116381 0.270519 -0.0219571)
(0.220223 0.118829 0.0187371)
(0.545156 -0.156275 -0.0958057)
(-0.00384858 -0.257424 -0.243982)
(0.453396 -0.0291123 -0.0467206)
(0.0261522 -0.316614 0.0740262)
(-0.381399 0.284452 -0.0135541)
(0.455017 -0.121013 -0.000666265)
(-0.449521 0.130793 -0.00656849)
(0.676307 -0.141931 0.024837)
(0.658901 0.0264952 0.0486168)
(0.445401 0.0359094 0.0472386)
(0.528034 -0.253219 -0.10275)
(-0.0500736 -0.330061 -0.090265)
(0.119439 -0.281345 -0.184657)
(-0.356206 0.319192 0.20361)
(0.47035 -0.0216811 -0.119916)
(-0.439412 0.0727854 0.0953389)
(0.53008 -0.0125218 -0.0628378)
(-0.48742 0.0426791 0.0611373)
(0.486816 -0.136851 -0.163358)
(0.143307 -0.116851 -0.11624)
(0.439664 -0.131897 -0.122939)
(0.000909858 -0.161932 0.066633)
(0.16278 0.351131 -0.0300246)
(-0.14653 -0.399488 0.0731136)
(0.282665 0.480903 -0.0645666)
(-0.41736 -0.381818 0.0721782)
(-0.00588717 -0.0750877 0.00557532)
(0.0802405 0.118777 -0.0199588)
(-0.0635153 -0.14996 -0.00944072)
(0.0820204 0.253223 0.0250919)
(-0.297401 -0.218331 -0.00189356)
(0.184255 0.534945 -0.13166)
(0.312268 -0.0768644 -0.0442424)
(-0.191768 0.79635 -0.185397)
(-0.449115 -0.483885 0.366123)
(0.639269 0.174971 -0.0902476)
(0.0810325 -0.0442701 0.041527)
(-0.0396817 0.0523869 -0.0896914)
(0.12761 0.00513619 0.117874)
(-0.202654 0.220763 -0.18283)
(0.456057 0.134611 -0.0488028)
(-0.0736592 0.269355 -0.0314875)
(0.238527 0.361587 -0.195271)
(-0.14908 0.450731 -0.231029)
(0.494087 0.0452233 0.0784295)
(0.22633 0.385017 -0.446005)
(-0.622073 -0.251415 0.235105)
(-0.0120651 -0.072012 0.0217407)
(0.0907974 0.138288 -0.0872119)
(-0.203477 -0.0619724 0.0792119)
(0.181539 0.354007 -0.0929505)
(0.0301897 0.0311989 0.026066)
(-0.122601 0.457009 -0.368667)
(-0.132775 0.192328 -0.355179)
(-0.12529 0.0580067 -0.396275)
(-0.0893516 -0.0462633 -0.156312)
(-0.492288 0.832294 -0.491558)
(-0.415399 -0.00298322 0.281984)
(0.149869 0.0330751 -0.0191611)
(-0.181433 0.0855611 -0.0855649)
(0.310781 0.213309 0.0122842)
(-0.0666052 0.215376 -0.0584886)
(-0.0267448 0.364809 -0.3322)
(-0.121659 0.159372 -0.414009)
(-0.0701667 0.0273197 -0.300586)
(-0.0351143 -0.246161 -0.305052)
(0.590375 0.14677 0.0672038)
(0.228078 -0.351013 -0.42199)
(-0.620211 0.256449 0.239246)
(-0.190562 -0.0802768 0.00367092)
(0.235242 0.321817 -0.0796201)
(0.138202 0.210664 -0.121073)
(-0.106337 0.440063 -0.314612)
(-0.0698888 0.192695 -0.423624)
(-0.0912303 -0.0159833 -0.344705)
(-0.112946 -0.286077 -0.234567)
(-0.0494147 -0.279655 -0.244878)
(-0.445153 0.478746 0.450154)
(0.635229 -0.0952978 -0.0731517)
(-0.564007 0.0145505 0.0208238)
(-0.00645862 0.255137 -0.0307215)
(0.0832708 0.191403 -0.109069)
(-0.0378876 0.235531 -0.346076)
(-0.0440395 0.0974052 -0.372596)
(-0.019373 -0.0687472 -0.393535)
(-0.155195 -0.312897 -0.287802)
(0.322494 -0.109368 -0.046327)
(0.0501858 -0.334308 -0.21831)
(-0.430929 0.333711 0.217712)
(0.511417 -0.111461 -0.106418)
(-0.510655 0.140689 0.084912)
(0.0620809 0.473517 -0.0597706)
(0.0306636 0.445854 -0.0864991)
(-0.04045 0.415975 -0.260566)
(-0.0578511 0.129045 -0.376091)
(-0.0406142 -0.00141894 -0.369788)
(-0.0989316 -0.271057 -0.199477)
(0.0108365 -0.252995 -0.226771)
(-0.336848 0.326659 0.309886)
(0.441351 -0.0773995 -0.0163616)
(-0.414566 0.136158 0.0333984)
(0.516134 -0.0584918 -0.0364698)
(-0.46597 0.0686264 0.0236035)
(0.392798 0.0438747 0.0676718)
(0.513961 0.0765805 -0.0449591)
(0.206365 0.192737 -0.159372)
(0.106626 -0.0087762 -0.206621)
(-0.0397227 -0.170722 -0.152426)
(0.331592 -0.162509 -0.0887285)
(0.0020179 -0.197211 -0.100173)
(-0.259498 0.246618 0.191142)
(0.362678 -0.104041 -0.104526)
(-0.36284 0.154346 0.0930202)
(0.459559 -0.0406936 -0.0545732)
(-0.447356 0.0915346 0.0507163)
(0.117198 0.0884874 -0.206203)
(-0.000376023 0.0651428 0.0210369)
(-0.184134 0.0711649 0.0523014)
(0.278398 0.0303407 0.0727297)
(0.049727 -0.0495418 0.0187222)
(0.0232855 0.0448779 -0.0224537)
(-0.00299272 -0.0440782 0.0096916)
(0.0699208 0.0326537 0.00230942)
(-0.0624611 -0.00387645 -0.0160442)
(0.155923 0.288612 -0.272155)
(-0.129035 -0.376818 0.370789)
(0.275202 0.414821 -0.400131)
(-0.5105 -0.348236 0.345156)
(0.592374 0.17432 -0.136159)
(-0.0208139 -0.0863245 0.0512014)
(0.0736371 0.125911 -0.0956536)
(-0.045906 -0.16682 0.126364)
(0.0926981 0.237273 -0.223413)
(-0.295158 -0.26737 0.224461)
(0.202796 0.452825 -0.176696)
(0.350147 -0.00506162 0.0242343)
(-0.19299 0.716642 -0.299381)
(-0.408702 -0.338336 0.467953)
(0.615832 0.00783429 -0.17121)
(-0.599687 0.0644152 0.0360327)
(0.121036 -0.0258453 0.0163241)
(-0.0653119 -0.0045665 -0.0212902)
(0.111149 0.0344046 -0.0406991)
(-0.204497 0.10131 -0.124225)
(0.47091 0.0957203 0.054041)
(-0.014286 0.125982 -0.294272)
(0.171343 0.106419 -0.0798967)
(-0.0698005 0.0218698 -0.393319)
(0.654481 0.164387 0.123638)
(-0.0386671 0.0321085 -0.508708)
(-0.521941 -0.0114446 0.326392)
(-0.0728795 -0.0845781 0.0831614)
(0.103373 0.122321 -0.179976)
(-0.22333 -0.0704304 0.13291)
(0.225772 0.282014 -0.125263)
(0.19755 -0.0140896 -0.124728)
(-0.0625976 0.120841 -0.304642)
(0.130771 0.0669123 -0.082021)
(-0.150322 -0.139496 -0.316757)
(-0.419031 0.381573 0.457267)
(0.618521 0.0159816 -0.165736)
(-0.607473 -0.0415299 0.0383087)
(0.179777 -0.0513051 -0.033942)
(-0.222331 0.0548196 -0.057705)
(0.379175 0.241866 -0.0116978)
(0.033635 0.061475 -0.259626)
(0.0912052 0.0781003 -0.140018)
(-0.0202465 0.0317104 -0.304002)
(0.328895 -0.0629507 -0.0560857)
(-0.0294546 -0.247214 -0.378909)
(-0.470799 0.254545 0.33706)
(0.543483 -0.0807169 -0.129796)
(-0.461471 0.0979737 0.117057)
(0.0953368 0.3251 -0.165316)
(-0.0437289 0.293953 -0.171005)
(0.0862393 0.0673843 -0.186227)
(-0.00792164 0.0947338 -0.260789)
(0.112665 0.0296646 -0.127809)
(-0.0543049 -0.173134 -0.280806)
(-0.295924 0.266087 0.293984)
(0.399253 -0.0920541 -0.122184)
(-0.466437 0.141812 0.138013)
(0.549785 -0.0297736 -0.0966368)
(-0.519206 0.0370777 0.0633304)
(-0.0308926 0.481817 -0.220837)
(0.122919 0.443467 -0.232461)
(-0.105691 0.251416 -0.0856734)
(0.0417967 0.0577281 -0.251687)
(0.0487474 0.0721673 -0.208535)
(0.23938 -0.136429 -0.118253)
(-0.0699769 -0.128935 -0.233808)
(-0.282502 0.197783 0.244893)
(0.372151 -0.131502 -0.119272)
(-0.357104 0.165866 0.122936)
(0.458141 -0.0638004 -0.0571675)
(-0.428404 0.0969841 0.0546803)
(-0.0662983 0.269738 -0.334006)
(0.020675 0.217907 -0.325182)
(-0.0537087 0.470197 -0.319663)
(0.100124 0.0999041 -0.16808)
(0.0426342 0.0776191 -0.272393)
(-0.205448 -0.00952284 0.242365)
(0.238606 0.0447817 -0.0831363)
(-0.279734 0.0544383 0.120749)
(0.399734 -0.00843569 -0.0831009)
(-0.390043 0.0647692 0.0807902)
(0.485308 0.00466212 -0.0541166)
(-0.460983 0.0417055 0.0457343)
(-0.00237183 0.152573 -0.272865)
(0.0858969 0.150033 -0.219753)
(0.0510062 0.0853226 -0.404414)
(-0.00111441 -0.0540164 0.0260079)
(0.0683077 0.0669142 -0.0434349)
(-0.0383491 -0.0733054 0.0511317)
(0.0962098 0.0900728 -0.0712697)
(-0.0443896 -0.100399 0.08501)
(0.0925913 0.110818 -0.135601)
(-0.163325 -0.126688 0.154528)
(0.280029 0.132139 -0.169849)
(-0.393182 -0.133045 0.189142)
(0.031713 -0.047221 0.0318232)
(0.034082 0.0512863 -0.0274632)
(-0.016422 -0.0527033 0.0310723)
(0.0830744 0.0711324 -0.00439087)
(-0.107115 -0.0883225 -0.0138258)
(0.18383 0.0350865 -0.296645)
(-0.157416 -0.0673461 0.36118)
(0.299156 0.0725839 -0.444553)
(-0.419236 -0.071343 0.345679)
(0.00255449 -0.0415674 0.0602696)
(0.0648332 0.0471447 -0.102702)
(-0.0178934 -0.0358864 0.153066)
(0.0604044 0.0177538 -0.246313)
(-0.0456674 -0.0575628 0.172204)
(0.141886 0.013799 -0.290329)
(-0.128585 -0.0204548 0.39485)
(0.276341 0.0240673 -0.503454)
(-0.248654 -0.0061982 0.514664)
(0.039719 -0.0530761 0.0233175)
(0.0394316 0.0588688 0.0123986)
(-0.0510524 -0.0927058 -0.0413345)
(0.118404 0.0206928 -0.201998)
(-0.0866982 -0.0468372 0.226813)
(0.179495 0.0271243 -0.272296)
(-0.163717 0.00796362 0.377453)
(0.303436 -0.0279385 -0.432393)
(-0.417802 0.0655838 0.347581)
(0.0185018 -0.0168067 0.107147)
(0.0253968 0.0105448 -0.188824)
(-0.011409 -0.0415522 0.0703865)
(0.114874 -0.0260295 -0.155951)
(-0.0778918 0.0258618 0.220172)
(0.184656 -0.0119676 -0.298107)
(-0.14123 0.0606732 0.335238)
(0.285156 -0.0684623 -0.0917608)
(-0.386613 0.104235 0.11406)
(0.0423176 -0.0838071 0.0855263)
(0.0964449 0.0784997 -0.114526)
(-0.0848442 -0.156927 0.123852)
(0.136588 0.0521989 -0.162354)
(-0.0829623 0.0166 0.227336)
(0.208006 -0.0127179 -0.276191)
(-0.25079 0.0677042 0.269135)
(0.352498 -0.0645759 -0.193137)
(-0.354774 0.108804 0.181015)
(0.113047 0.254537 -0.0881757)
(-0.0294205 0.421301 -0.114252)
(-0.309364 -0.0235288 0.0976135)
(0.221983 -0.10425 -0.144444)
(-0.112685 0.110096 0.190024)
(0.216338 -0.0599674 -0.0293863)
(-0.245581 0.106868 0.0776476)
(0.351761 -0.036062 -0.0389531)
(-0.352726 0.0834879 0.0460125)
(0.0868772 0.157153 -0.156435)
(0.0133317 0.115477 -0.207908)
(0.050124 0.433951 -0.0675142)
(-0.15267 -0.1401 -0.171325)
(-0.0779851 0.108982 0.182131)
(0.182941 -0.0500786 -0.139255)
(-0.214442 0.101267 0.148588)
(0.0256847 -0.0401474 0.0156122)
(0.0492846 0.0423931 -0.0185282)
(-0.0318077 -0.0388453 0.0168262)
(0.107424 0.0593034 -0.0318353)
(-0.103217 -0.0536847 0.040339)
(0.171309 0.116762 -0.094015)
(-0.211483 -0.116763 0.128385)
(0.292593 0.139297 -0.123793)
(-0.366814 -0.110358 0.129045)
(-0.00341369 -0.0509643 0.0395256)
(0.0708131 0.0645748 -0.0553024)
(-0.0292613 -0.0646092 0.0657203)
(0.100484 0.0896794 -0.0860226)
(-0.0365866 -0.0719256 0.10065)
(0.101504 0.0930065 -0.11202)
(-0.169992 -0.0980205 0.139878)
(0.28394 0.103056 -0.134399)
(-0.397707 -0.0867868 0.148203)
(0.0485235 -0.0348402 0.0265864)
(0.0357898 0.0366347 -0.0324695)
(-0.00586194 -0.0309656 0.0321971)
(0.0998297 0.0758104 -0.0617523)
(-0.0987681 -0.0791896 0.0834002)
(0.146291 0.0483633 -0.105409)
(-0.197744 -0.0411826 0.145154)
(0.295357 0.0376657 -0.1607)
(-0.422456 -0.0200462 0.172678)
(-0.00119737 -0.0376124 0.0519228)
(0.0744133 0.0415965 -0.0720214)
(0.0105606 -0.0123596 0.0759161)
(0.0538668 0.00949187 -0.0823454)
(-0.0653098 -0.0202668 0.107033)
(0.136479 0.000722942 -0.105979)
(-0.179505 0.025766 0.139109)
(0.305021 -0.0651746 -0.134831)
(-0.403042 0.0847639 0.151932)
(0.0592826 -0.0462784 0.044179)
(0.0607064 0.0460313 -0.0549828)
(-0.0375423 -0.0548254 0.0772153)
(0.0941557 0.0242426 -0.0761217)
(-0.109317 -0.0160679 0.104155)
(0.188157 0.00301199 -0.110114)
(-0.265774 0.0387583 0.13583)
(0.366065 -0.0447234 -0.12122)
(-0.363703 0.0662909 0.130002)
(0.0235447 -0.0147111 0.0493912)
(0.068851 -0.004221 -0.068348)
(-0.0133829 -0.0151846 0.0714864)
(0.0898118 -0.00509296 -0.0559646)
(-0.0857201 0.0214394 0.0842445)
(0.188384 -0.0555595 -0.0870632)
(-0.232671 0.0851116 0.120944)
(0.33623 -0.0283742 -0.0703268)
(-0.367304 0.0693814 0.0799617)
(0.0525451 -0.0331075 0.0739508)
(0.0933173 0.00819635 -0.130632)
(-0.0599179 0.00362705 0.196035)
(0.126156 0.00612575 -0.112875)
(-0.161938 0.0264319 0.0938935)
(0.254156 -0.0283832 -0.0817087)
(-0.242602 0.0675996 0.09874)
(0.347482 -0.0341468 -0.063339)
(-0.331907 0.0740791 0.0680608)
(0.0382128 -0.0207583 0.0932504)
(0.076675 0.00380249 -0.119675)
(0.000582035 -0.00157525 0.130782)
(0.0988303 0.00460272 0.0362573)
(-0.0487837 -0.0375046 0.0159256)
(0.121097 0.0411621 -0.0340033)
(-0.120544 -0.0396584 0.0327258)
(0.195336 0.040105 -0.097238)
(-0.211155 -0.0319726 0.107868)
(0.29566 0.0422279 -0.12104)
(-0.331321 -0.0282504 0.0984609)
(-0.0478802 -0.0247411 0.0569028)
(0.117523 0.0247783 -0.0866402)
(-0.111835 -0.0199004 0.0783916)
(0.186961 0.0239592 -0.104829)
(-0.200125 -0.0124197 0.122949)
(0.28781 0.0240764 -0.114925)
(-0.327283 -0.00526326 0.111558)
(-0.0529932 -0.0387226 0.0221985)
(0.126815 0.0325037 -0.0727452)
(-0.12101 -0.0215425 0.081131)
(0.202506 0.0221485 -0.111096)
(-0.210914 0.00119256 0.129049)
(0.30241 0.00931035 -0.129349)
(-0.331759 0.0201623 0.109625)
(-0.0513635 -0.0114673 0.0540811)
(0.134355 0.00473557 -0.0766848)
(-0.121703 0.00673544 0.0870524)
(0.208175 0.00260923 -0.0907632)
(-0.21463 0.019867 0.102758)
(0.305408 -0.0028977 -0.0445664)
(-0.3277 0.0340285 0.0469895)
(-0.0653968 -0.0367737 0.0548669)
(0.14466 0.0226251 -0.0739509)
(-0.122831 0.00291374 0.0886896)
(0.214395 0.00546595 -0.0986564)
(-0.217679 0.0287189 0.104005)
(0.316548 -0.00433234 -0.0804675)
(-0.319522 0.0443196 0.0686778)
(-0.0658882 -0.0157243 0.0647292)
(0.172624 -0.00926405 -0.0606017)
(-0.138512 0.0250475 0.0723294)
(0.232213 -0.00471666 -0.0323867)
(-0.222392 0.039771 0.0445644)
(0.321706 0.00232878 -0.00947533)
(-0.318736 0.0417413 0.0103086)
(-0.0187589 -0.105286 -0.452457)
(-0.0493765 0.0791908 0.375048)
(-0.000765534 -0.149052 -0.498427)
(-0.01327 0.12283 0.391549)
(-0.0074787 -0.0392248 -0.226245)
(0.0203486 -0.0200645 0.397612)
(-0.00965609 -0.0680114 -0.290999)
(0.0280983 -0.231627 -0.246748)
(0.0768189 -0.0101052 -0.245426)
(0.154152 -0.210165 -0.0952141)
(0.0939827 -0.19283 -0.377648)
(0.0502593 0.0442851 0.325969)
(0.0647968 -0.0707783 -0.206571)
(0.138726 0.223599 0.119008)
(0.0309093 -0.234828 -0.15721)
(0.588475 0.0887686 0.237078)
(0.0672352 -0.121786 -0.415095)
(-0.109309 0.0352284 0.30294)
(0.0725662 -0.0106892 -0.414807)
(0.0553666 0.212741 0.3015)
(0.20113 -0.104262 -0.142262)
(0.57721 0.0862463 0.263776)
(0.119471 -0.0315198 -0.00927265)
(0.0798733 -0.00473869 -0.23679)
(0.0583659 0.00916651 -0.230138)
(0.0765234 -0.0487074 -0.215397)
(0.0543816 -0.048679 0.359189)
(0.141454 0.03986 -0.179468)
(0.564966 0.0351188 0.25346)
(0.0685044 -0.0110626 -0.389541)
(-0.00904762 -0.0975087 0.405907)
(0.00676939 0.00552732 -0.444576)
(0.55562 0.058942 0.263662)
(0.118642 -0.029133 -0.0263877)
(-0.00785455 -0.116468 -0.484867)
(-0.171403 0.124395 0.391896)
(0.0318097 -0.152429 -0.498418)
(-0.0611412 0.438937 0.180872)
(0.477842 -0.0505511 -0.045068)
(0.789077 0.042918 -0.0259916)
(1.31394 -0.245942 -0.0603612)
(-0.0650431 -0.01364 -0.146813)
(0.0168709 -0.0209917 0.388001)
(-0.0287105 -0.0834651 -0.339396)