/*--------------------------------*- C++ -*----------------------------------*\
  =========                 |
  \\      /  F ield         | OpenFOAM: The Open Source CFD Toolbox
   \\    /   O peration     | Website:  https://openfoam.org
    \\  /    A nd           | Version:  10
     \\/     M anipulation  |
\*---------------------------------------------------------------------------*/
FoamFile
{
    format      ascii;
    class       volVectorField;
    location    "0.1";
    object      U_0;
}
// * * * * * * * * * * * * * * * * * * * * * * * * * * * * * * * * * * * * * //

dimensions      [0 1 -1 0 0 0 0];

internalField   nonuniform List<vector> 
115093
(
(0.0171432 -0.0167822 0.0132684)
(0.04129 0.010137 -0.0184063)
(-0.0203074 -0.0134923 0.0208165)
(0.0786928 0.0139575 0.00831027)
(-0.0691678 -0.00580708 -0.0144725)
(0.127453 0.0121731 0.00352683)
(-0.151636 0.0116714 -0.0137571)
(0.222126 0.00504086 -0.0460422)
(0.00906863 -0.0111582 -0.0173384)
(0.0423364 0.0138413 0.0235434)
(-0.0047449 -0.0193271 -0.012149)
(0.0707366 0.0212452 0.0146129)
(-0.0583839 -0.0069958 -0.0226612)
(0.13066 0.0158476 -0.00219889)
(-0.150061 0.0156412 -0.00560737)
(0.225456 0.00210164 -0.0807075)
(0.0224116 -0.0182623 -0.0104972)
(0.0331344 0.00353014 0.00509625)
(-0.0126516 -0.00555526 -0.00632412)
(0.0908128 0.0130636 0.00519229)
(-0.0744762 0.00824318 -0.0189352)
(0.149697 0.0032158 -0.00350314)
(-0.164772 0.0276844 -0.0038145)
(0.240608 -0.00763745 -0.0807427)
(-0.0160648 -0.0150218 -0.0133415)
(0.0547291 0.0188109 0.000315243)
(0.00488702 -0.0306599 -0.0178213)
(0.0842619 0.0313242 0.00837137)
(-0.0680593 -0.00127473 -0.0240203)
(0.149953 0.0169459 -0.00309176)
(-0.161483 0.0204526 -0.000491334)
(0.245478 0.0142398 -0.0804914)
(-0.00109996 -0.0292375 -0.0108868)
(0.119194 0.029134 -0.00528284)
(-0.0889029 0.00566631 -0.00604646)
(0.171265 0.00800627 -0.0457787)
(-0.166349 0.0361452 0.0386463)
(0.253929 0.00879032 -0.0914528)
(0.0170297 -0.0225885 -0.0201776)
(0.0547785 0.027887 0.0301012)
(0.016113 -0.00765346 -0.0204744)
(0.03833 0.0156824 0.0196049)
(-0.0703949 -0.0335425 -0.0225477)
(0.137304 0.0675537 0.0212524)
(-0.199997 -0.0433668 -0.0449881)
(0.2993 0.00657798 0.0190406)
(0.0499197 -0.0390274 0.0251978)
(0.0547237 0.0381817 -0.0237918)
(-0.0286158 -0.0392558 0.00715643)
(0.0756993 0.00892487 0.002983)
(-0.0918436 -0.00536851 -0.0196388)
(0.163262 0.00376788 0.0230836)
(-0.2371 0.0212957 -0.0175296)
(0.329517 -0.0302729 -0.00156699)
(0.0327291 -0.00137151 -0.00424767)
(0.0559278 -0.0189631 0.016083)
(-0.0134277 -0.00655268 -0.0359872)
(0.0717326 0.00155257 0.0230034)
(-0.0766049 0.00402835 -0.0282327)
(0.16079 0.0133748 0.0216687)
(-0.2324 0.0197964 -0.00878311)
(0.328137 0.0166538 -0.051341)
(0.0673546 -0.0230799 -0.00625063)
(0.0343713 0.00575949 -0.106961)
(-0.00900344 -0.000643542 0.0325721)
(0.0858074 -0.00365305 0.00775806)
(-0.0800591 0.0249851 -0.00795887)
(0.178806 -0.0377164 0.00349787)
(-0.237107 0.0694909 -0.000751272)
(0.335748 0.00184746 -0.0734256)
(0.0337115 -0.00353967 -0.0251166)
(0.0940658 -0.00899432 0.0390546)
(-0.0391981 0.00754581 -0.15414)
(0.0966846 -0.00787605 0.0933069)
(-0.112253 0.0354387 -0.035335)
(0.208567 -0.0275305 0.011265)
(-0.192021 0.072067 -0.00494815)
(0.303031 0.000364857 -0.0524424)
(0.0476816 -0.00659719 -0.0308547)
(0.0909926 -0.000784914 0.0441489)
(0.0266105 -0.0484701 -0.0364901)
(0.0365882 0.0570588 0.0659653)
(0.0130799 -0.0553524 -0.1039)
(0.0296414 0.051483 0.184225)
(0.0106176 -0.0761358 -0.0897472)
(0.0607685 0.026232 -0.0602975)
(-0.131496 -0.0318926 -0.0295295)
(0.223557 0.0251195 0.0575193)
(-0.394936 -0.00617771 -0.0603949)
(0.527049 0.0240842 0.0460443)
(0.0231927 -0.0234757 0.0226507)
(0.0400407 0.00705031 -0.0512664)
(-0.0371172 -0.0405301 0.0815329)
(0.0973566 -0.00992253 0.129831)
(-0.0584308 -0.0280437 -0.144473)
(0.142575 0.00403587 0.17839)
(-0.179509 0.0340094 -0.226792)
(0.24706 -0.0223537 0.114903)
(-0.397167 0.0824238 -0.0844357)
(0.515234 -0.00198808 0.063913)
(0.020684 0.00603472 -0.0784182)
(0.0169885 -0.00771008 0.138446)
(0.0419833 -0.0656274 -0.0231593)
(0.0519255 0.0176379 0.087394)
(-0.0353495 -0.014586 -0.141257)
(0.136059 0.0143422 0.191829)
(-0.123022 0.0303829 -0.222859)
(0.249677 -0.0668474 -0.0454093)
(-0.38321 0.106975 0.0268244)
(0.475989 0.00189182 -0.0316473)
(0.0708266 -0.0664688 -0.0397253)
(0.00313492 -0.105634 0.0788702)
(0.0019256 0.00663906 -0.0508124)
(0.0995355 0.0141463 0.0796696)
(-0.0720925 0.019843 -0.131638)
(0.170043 -0.0144034 0.190161)
(-0.18507 0.0652722 -0.208237)
(0.286969 -0.0782324 -0.0715116)
(-0.333846 0.117557 0.0521652)
(0.443417 -0.025525 -0.01808)
(0.0533662 0.287547 0.274664)
(-0.257929 0.0707415 0.0583499)
(0.0597505 -0.157519 -0.0764029)
(0.0470868 0.0899414 0.0860061)
(-0.0673726 -0.00287675 -0.141615)
(0.185788 0.018108 0.189077)
(-0.265985 0.02858 -0.192612)
(0.345493 0.013096 -0.0101185)
(-0.320689 0.0536399 0.0179676)
(0.421016 0.00671848 -0.0589113)
(0.0146695 0.0501062 0.332761)
(-0.0974153 0.505947 0.349095)
(-0.308093 -0.172193 -0.000952218)
(0.209576 0.0847969 0.0530839)
(-0.126249 0.00782332 -0.0862239)
(0.194358 -0.0338583 -0.0442872)
(-0.237339 0.0905582 0.00150429)
(0.343222 -0.012176 -0.023598)
(-0.331967 0.0649142 0.0370928)
(0.433828 0.00566466 -0.0515729)
(0.0505484 0.0225682 0.316141)
(0.0167747 0.106956 0.420987)
(-0.284935 0.00767514 -0.0258646)
(0.2322 0.0133737 0.0719017)
(0.0269008 -0.032668 0.0239302)
(0.0445319 0.0430002 -0.00215847)
(-0.0242718 -0.0432781 0.0141012)
(0.101661 0.0909961 0.0453592)
(-0.113295 -0.0877869 -0.0846802)
(0.127336 0.128933 0.228522)
(-0.120479 -0.172323 -0.219284)
(0.253578 0.147845 0.320157)
(-0.398039 -0.141642 -0.241622)
(0.486622 0.148818 -0.00420783)
(0.0178245 -0.0832569 -0.013437)
(0.0410503 0.117374 0.0267878)
(0.0231863 -0.154588 -0.0124707)
(0.039882 0.246567 -0.00273327)
(-0.00699887 -0.15445 0.0186605)
(0.100873 -0.0535217 0.212213)
(-0.140769 -0.0503125 -0.269222)
(0.289723 0.0498251 0.360723)
(-0.263521 -0.0457362 -0.426319)
(0.408797 0.104998 -0.0192514)
(0.0861636 0.00289732 0.0446807)
(-0.033649 -0.039143 -0.0138902)
(0.0799163 0.0681584 0.0793328)
(-0.151288 0.0185358 0.029418)
(0.22241 0.228716 0.280151)
(-0.115754 0.180248 0.166839)
(-0.0975085 -0.181215 -0.29222)
(0.258764 0.0545893 0.35877)
(-0.241488 -0.0222641 -0.480749)
(0.405505 0.0243811 0.00298667)
(-0.0279345 -0.0645344 -0.0788045)
(0.0803596 0.096716 0.148613)
(-0.201741 -0.0531924 -0.0623654)
(0.0941759 0.290966 0.383205)
(0.0643064 -0.102729 0.271384)
(-0.150216 0.570249 0.432335)
(-0.371988 -0.154472 -0.218194)
(0.402988 -0.092661 0.335534)
(-0.286099 0.105732 -0.395801)
(0.428444 -0.0784778 -0.0235795)
(0.155793 -0.0557145 0.125759)
(-0.203946 0.036291 0.0661909)
(0.184789 0.268932 0.253573)
(0.0109998 0.0133995 0.446901)
(0.0523456 0.0419126 0.253939)
(-0.0129868 0.0431285 0.520657)
(0.171869 0.371962 0.0309836)
(-0.10803 -0.177399 0.308495)
(-0.354768 0.187277 -0.217861)
(0.428574 -0.0988506 -0.0146932)
(0.0845597 0.293214 0.291534)
(-0.0229834 0.28883 0.328672)
(0.075392 0.00584315 0.356571)
(0.0130333 0.0747655 0.430723)
(0.0751121 0.0311969 0.279168)
(0.0353302 0.0157027 0.498865)
(0.338269 -0.0298645 0.1243)
(-0.153432 0.0623407 0.00482873)
(-0.276277 0.0366805 -0.0304545)
(0.374358 -0.0196611 0.00261699)
(0.0306442 0.206423 0.140037)
(-0.0705382 0.178844 0.539838)
(0.0386335 0.0176819 0.313003)
(0.00869239 0.0628252 0.461103)
(0.112923 0.0032554 0.234879)
(0.00290305 -0.142682 0.527434)
(-0.450741 0.231501 -0.183616)
(0.475287 0.0525271 -0.0970355)
(-0.351905 0.033056 0.0943563)
(0.471216 -0.0335375 -0.0619931)
(-0.00729481 0.0707859 0.371971)
(-0.0360835 0.112955 0.198195)
(-0.0290759 0.0136557 0.476211)
(0.0442958 0.0819282 0.380238)
(0.221292 -0.147214 0.275428)
(-0.0835374 -0.167729 0.125645)
(-0.252353 0.245021 -0.183113)
(0.329586 -0.0279246 0.0387644)
(-0.328814 0.0818265 -0.00554535)
(0.427087 -0.000993862 -0.0256636)
(0.0447706 0.0378472 0.428616)
(-0.0334635 0.0731839 0.362926)
(-0.0242783 0.00597706 0.435677)
(0.0362315 0.031362 0.436615)
(-0.284965 -0.0268911 -0.0881305)
(0.271712 0.104157 -0.101978)
(0.11882 0.311145 0.0304452)
(-0.128981 -0.32111 -0.0626502)
(0.250512 0.425701 0.0602303)
(-0.415896 -0.360822 -0.0496434)
(0.0477429 -0.073425 0.0217333)
(0.0235959 0.0878226 -0.015389)
(0.0548629 -0.0777482 0.0447407)
(-0.0546556 0.0734815 -0.0780146)
(0.119866 -0.0435859 0.0613538)
(-0.198342 0.182429 0.132546)
(0.293835 0.0621573 0.122584)
(-0.189201 0.619324 0.538398)
(-0.501516 -0.404979 -0.3415)
(0.70527 0.0632282 0.0169834)
(0.0129756 0.00500035 -0.0187415)
(0.0496207 0.0052101 0.063517)
(-0.0589992 0.0599163 -0.0941677)
(0.121664 0.159926 0.12814)
(-0.232193 -0.191732 -0.121718)
(-0.0220317 0.361818 0.428692)
(0.144623 0.0242846 0.0893531)
(-0.0254527 0.183302 0.630636)
(0.427424 0.152294 -0.123175)
(0.0692874 0.0379454 0.46507)
(0.0583725 -0.112232 -0.0103048)
(0.0431071 0.175942 0.0688008)
(-0.187012 -0.10666 -0.0623083)
(0.0529791 0.414341 0.331885)
(0.0262653 0.223413 -0.0464416)
(-0.127428 0.149462 0.628616)
(0.0576609 0.0481467 0.0603183)
(0.0292757 0.0569658 0.665467)
(0.486289 0.0461824 -0.120477)
(0.153348 0.0191565 0.521781)
(0.0546904 0.090493 0.0334623)
(-0.125189 0.075228 0.0578097)
(0.117743 0.227435 0.280238)
(0.0250081 0.167177 0.150001)
(0.109812 0.117 0.376698)
(-0.175869 0.10495 0.149989)
(-0.030081 -0.0419541 0.268015)
(0.122245 -0.105227 0.582396)
(0.526719 -0.0258767 -0.0973676)
(0.0664054 -0.018591 0.447248)
(-0.0620498 -0.0744093 -0.0213518)
(-0.00508342 0.31545 0.341231)
(0.0944036 0.0708093 0.10306)
(0.0752739 0.0852932 0.481386)
(0.0446656 0.049191 0.420353)
(-0.016203 0.0277399 0.490587)
(-0.0226694 -0.0782031 -0.00258981)
(-0.113642 -0.270178 0.708788)
(-0.487821 0.405202 -0.439145)
(0.67744 0.0249882 0.00527679)
(0.0162182 0.259172 0.199786)
(0.0544242 0.166476 0.248324)
(0.0711552 0.0641065 0.451628)
(0.0237907 0.043421 0.463089)
(0.0602715 0.00543189 0.404024)
(0.0607028 -0.0172802 0.462776)
(0.167479 -0.0183469 0.0668617)
(-0.00326605 -0.393727 0.342723)
(-0.445921 0.414192 -0.303542)
(0.499769 -0.0731461 0.0918575)
(0.123311 0.30013 0.210915)
(0.0404931 0.225601 0.436363)
(0.00557603 -0.00647433 0.418712)
(0.0542806 0.0248343 0.424131)
(0.0931048 -0.0251883 0.373507)
(-8.66822e-05 -0.0605726 0.202216)
(0.252267 -0.0457721 0.279671)
(-0.0887322 0.0358323 -0.0555809)
(-0.318107 0.0801846 0.00816137)
(0.407963 -0.023645 -0.0193992)
(-0.0515004 0.279061 0.286204)
(0.0471945 0.238402 0.425873)
(-0.0410333 0.243543 0.509875)
(0.157361 0.0176314 0.379134)
(0.12254 -0.0309372 0.108721)
(-0.0514258 -0.183828 0.576377)
(-0.429596 0.291243 -0.188183)
(0.491542 0.019989 0.0882373)
(-0.388181 0.0482492 -0.056123)
(0.501967 -0.00525593 0.00574283)
(0.0615866 0.0363547 0.293006)
(-0.0641013 0.00522746 0.275648)
(0.0584029 0.00913063 0.498096)
(0.123834 0.0170129 0.102847)
(0.247328 -0.142093 0.369031)
(-0.0503629 -0.143712 -0.120995)
(0.159398 0.350354 -0.00770022)
(-0.130217 -0.420577 -0.0176522)
(0.277789 0.508915 0.0244184)
(-0.249807 -0.575545 0.00293293)
(0.0320064 -0.0528596 -0.00801782)
(0.0678406 0.0987101 0.012566)
(-0.0831371 -0.119125 0.00486235)
(0.101337 0.229568 -0.0832067)
(-0.23628 -0.196618 0.120975)
(-0.0207724 0.507532 0.357986)
(0.197674 -0.0380794 0.019058)
(-0.0599267 0.723347 0.160086)
(0.495269 -0.234603 0.183284)
(0.044102 0.55635 -0.0127255)
(0.0550215 -0.111659 0.0274849)
(-0.0357953 0.215008 -0.00454712)
(0.14337 -0.0857012 -0.0498665)
(-0.203803 0.137146 0.132578)
(0.178349 0.149017 0.345161)
(-0.0638199 0.238275 0.186833)
(0.0298317 0.333634 0.308912)
(-0.198392 0.462705 0.387966)
(0.274285 -0.0914499 -0.0668483)
(-0.422557 0.755213 0.65905)
(-0.471162 -0.284771 -0.253183)
(0.143608 0.0552892 -0.0974391)
(-0.28264 0.0539846 0.159387)
(0.208538 0.231888 0.300576)
(-0.0918807 0.362102 0.038707)
(0.0393971 0.00679181 -0.000372388)
(-0.0543 0.359915 0.444935)
(-0.0120637 0.128888 0.442505)
(-0.0780446 0.065995 0.581615)
(0.0237098 0.0377891 0.145425)
(-0.362265 0.130351 0.907561)
(-0.497095 -0.00725038 -0.192859)
(-0.254175 0.0332611 0.127972)
(0.0876806 0.27715 0.385293)
(0.0364303 0.0411357 0.0310777)
(-0.0259541 0.487297 0.194078)
(-0.0963327 0.462387 0.215715)
(-0.155346 0.251443 0.520214)
(-0.0129644 -0.0231609 0.469741)
(0.00893894 -0.208126 0.526178)
(0.231869 0.0940558 -0.117294)
(-0.392325 -0.238947 0.862428)
(-0.46847 0.290067 -0.262376)
(0.161482 0.274905 0.354674)
(0.0307315 0.0942267 0.111836)
(-0.0964109 0.445815 0.215302)
(-0.147999 0.314838 0.290683)
(-0.00616116 0.113261 0.458704)
(-0.0716214 0.123683 0.403693)
(0.0125601 -0.130523 0.397404)
(-0.0762615 -0.0953986 0.19432)
(0.54534 0.0679641 0.100997)
(0.0781502 -0.475019 -0.0293104)
(-0.542903 0.26044 0.0861643)
(0.0323597 0.0348558 0.111289)
(-0.0140971 0.421666 0.221174)
(-0.0998903 0.307378 0.300581)
(-0.0309335 0.155649 0.450766)
(0.0227548 -0.0562647 0.368892)
(0.0200969 -0.176906 0.298929)
(0.0382775 -0.198476 0.172042)
(-0.11327 -0.26356 0.669646)
(-0.391792 0.487809 -0.203975)
(0.611451 -0.0494895 0.102874)
(-0.580295 0.0431327 -0.0633996)
(0.0124666 0.343831 0.206706)
(-0.0672741 0.261769 0.296735)
(0.0288647 0.118923 0.396921)
(0.0482628 -0.0338391 0.292189)
(0.0186455 -0.257599 0.232021)
(-0.0613557 -0.266544 0.407563)
(0.434477 0.0244672 0.0803943)
(0.0384994 -0.333915 -0.000924116)
(-0.392854 0.29159 -0.0126656)
(0.470912 -0.127012 -0.0273771)
(-0.462099 0.133811 0.0574387)
(0.179841 0.128094 0.0862659)
(0.0886469 0.199155 0.226401)
(0.179006 0.0656804 0.11065)
(0.0553942 -0.173912 0.263914)
(0.0201856 -0.224067 0.206167)
(0.068704 -0.240996 0.154193)
(-0.336667 0.339602 0.00859069)
(0.450381 -0.0318838 0.0511912)
(-0.409903 0.0982706 -0.0157001)
(0.504648 -0.02107 0.00916152)
(-0.472436 0.0631363 0.0134476)
(0.16389 -0.0740246 0.135951)
(0.0487895 -0.140986 0.357142)
(0.400924 -0.0985517 0.125002)
(0.0201352 -0.169589 -0.00717459)
(0.150688 0.327665 -0.0244292)
(-0.123962 -0.415157 0.0375175)
(0.275355 0.520601 -0.0496844)
(-0.256808 -0.57731 0.0442563)
(0.0611777 -0.0625224 0.0331251)
(0.0391514 0.09506 -0.0573409)
(-0.0561391 -0.121335 0.0458101)
(0.0803824 0.196201 -0.0329937)
(-0.27721 -0.254912 0.043914)
(0.135382 0.549755 0.0846557)
(0.172035 -0.039288 0.010503)
(-0.0506837 0.747102 0.0111578)
(0.649342 -0.205958 0.0173001)
(0.0854757 0.571794 0.0262652)
(0.0175103 -0.0995712 -0.0109464)
(-0.0186966 0.20555 0.00251156)
(0.100571 -0.0778309 0.0111899)
(-0.242449 0.151385 0.0161404)
(0.389911 0.19041 0.111495)
(0.0186128 0.298559 0.0681847)
(0.139276 0.430377 0.0704176)
(-0.0920769 0.670749 0.0202866)
(0.0518357 0.146923 0.109271)
(-0.449385 0.936727 -0.0679678)
(-0.478617 -0.257502 0.285421)
(0.183517 0.0388132 0.0907854)
(-0.300334 0.0830358 -0.17277)
(0.403416 0.252164 0.00812792)
(-0.147669 0.396074 0.0211622)
(0.0637868 0.12171 0.0204209)
(-0.189073 0.562552 0.0591973)
(-0.0736906 0.417455 0.137733)
(0.190787 0.00624916 0.124222)
(-0.0275397 0.0883744 -0.0121868)
(-0.231926 0.296318 0.0544861)
(-0.408922 -0.0104766 -0.0201409)
(-0.291079 0.00528722 -0.0975527)
(0.290899 0.316226 -0.0143165)
(0.00338271 0.106597 0.0811697)
(-0.0574925 0.533285 -0.0761285)
(-0.259419 0.464003 -0.0161817)
(-0.044299 0.442581 0.0593303)
(0.613302 -0.0664159 -0.0970659)
(0.417833 -0.247417 0.159405)
(-0.00112606 -0.146255 0.146779)
(-0.43872 -0.347976 -0.0512262)
(-0.473768 0.26784 0.289705)
(0.351753 0.321708 -0.00372498)
(-0.000298889 0.151393 0.071557)
(-0.158205 0.511897 0.0270462)
(-0.0168545 0.364893 -0.0188421)
(0.111671 0.215436 -0.0514913)
(0.918844 0.0674382 -0.137062)
(1.19265 -0.335177 -0.0174472)
(-0.0671131 -0.376646 0.41357)
(0.70015 0.0252389 0.060766)
(0.131834 -0.471752 0.0526797)
(-0.552316 0.249278 -0.0705308)
(0.0988068 0.12938 0.0542432)
(-0.0296392 0.468008 -0.0628767)
(-0.0678476 0.303841 -0.0420723)
(0.159876 0.151709 -0.0396098)
(0.872894 0.15603 0.138266)
(1.38288 -0.475796 -0.285591)
(-0.0401331 -0.297421 -0.0799955)
(-0.0432731 -0.309869 -0.0231823)
(-0.40826 0.523095 0.233209)
(0.625346 -0.0724354 -0.123614)
(-0.59778 0.029168 0.116994)
(0.151561 0.343581 0.0475534)
(0.0845212 0.335129 0.0823135)
(0.11694 0.272454 -0.0214)
(0.220698 0.120602 0.0181106)
(0.540908 -0.154058 -0.0941227)
(-0.00456092 -0.258408 -0.245353)
(0.454795 -0.0302008 -0.0477965)
(0.0255956 -0.316292 0.0747012)
(-0.381236 0.285128 -0.0141388)
(0.455525 -0.121895 -0.0004413)
(-0.450116 0.131566 -0.00672176)
(0.675162 -0.141445 0.0254507)
(0.659591 0.0271153 0.0488992)
(0.445734 0.0366277 0.0469014)
(0.527629 -0.252276 -0.102191)
(-0.0506585 -0.33208 -0.0908143)
(0.121768 -0.281723 -0.184921)
(-0.35788 0.318748 0.204317)
(0.471261 -0.0214701 -0.120378)
(-0.440024 0.0727109 0.0956066)
(0.53097 -0.0125073 -0.0630317)
(-0.488447 0.0427631 0.0612474)
(0.489803 -0.138895 -0.162517)
(0.144344 -0.117776 -0.116786)
(0.441822 -0.13224 -0.123587)
(0.000284527 -0.161372 0.0670256)
(0.162805 0.349656 -0.0298604)
(-0.146832 -0.398679 0.0731628)
(0.283262 0.480808 -0.0642366)
(-0.417632 -0.382471 0.0718509)
(-0.00617488 -0.0746668 0.00536206)
(0.0807068 0.118393 -0.0196507)
(-0.0643531 -0.14979 -0.00989456)
(0.0830055 0.253269 0.0258741)
(-0.29928 -0.217498 -0.00261751)
(0.18681 0.53571 -0.131701)
(0.311532 -0.0740783 -0.0453055)
(-0.192586 0.798609 -0.185425)
(-0.453072 -0.483342 0.365626)
(0.640848 0.175156 -0.090387)
(0.0812051 -0.04368 0.0414024)
(-0.039953 0.0517091 -0.089588)
(0.127899 0.00594662 0.118192)
(-0.204099 0.219708 -0.183405)
(0.457467 0.135955 -0.0488835)
(-0.0741165 0.270408 -0.031311)
(0.23846 0.365233 -0.197134)
(-0.147844 0.453267 -0.232253)
(0.493689 0.0501041 0.0773798)
(0.225503 0.385495 -0.446205)
(-0.623264 -0.253493 0.236681)
(-0.0125305 -0.0715023 0.0217134)
(0.0917342 0.137946 -0.0871631)
(-0.205071 -0.0607003 0.0783604)
(0.184406 0.354232 -0.0925636)
(0.0287442 0.0327386 0.025472)
(-0.124376 0.459253 -0.370092)
(-0.133213 0.193834 -0.35696)
(-0.125596 0.0575629 -0.397407)
(-0.0902707 -0.0452828 -0.1594)
(-0.493771 0.836226 -0.492929)
(-0.42136 -0.00294497 0.283762)
(0.150397 0.0340374 -0.0198003)
(-0.18282 0.0845479 -0.0850025)
(0.312013 0.215449 0.0114043)
(-0.0677921 0.215956 -0.0589841)
(-0.0285961 0.367111 -0.334094)
(-0.121847 0.160244 -0.415254)
(-0.0706694 0.027372 -0.302413)
(-0.0353701 -0.247676 -0.306647)
(0.590889 0.145747 0.0653828)
(0.227375 -0.35154 -0.422235)
(-0.621461 0.258683 0.240784)
(-0.192129 -0.0794424 0.00319302)
(0.237856 0.323196 -0.0796131)
(0.137302 0.212887 -0.12262)
(-0.106836 0.443215 -0.315886)
(-0.0707835 0.193839 -0.425641)
(-0.0918634 -0.0160302 -0.345966)
(-0.113985 -0.286874 -0.236245)
(-0.0472834 -0.2796 -0.24526)
(-0.448366 0.478459 0.450317)
(0.636636 -0.0956144 -0.0736835)
(-0.565368 0.0149499 0.0210315)
(-0.00693768 0.257721 -0.0313968)
(0.0829689 0.192136 -0.109671)
(-0.0395759 0.236286 -0.347456)
(-0.0444671 0.0979636 -0.374096)
(-0.0199068 -0.0690298 -0.396005)
(-0.156667 -0.313462 -0.288419)
(0.323387 -0.110592 -0.0481375)
(0.0491231 -0.33408 -0.217897)
(-0.430604 0.334314 0.218124)
(0.511907 -0.112349 -0.106992)
(-0.511365 0.141583 0.0853771)
(0.061252 0.477909 -0.0607436)
(0.0294492 0.450842 -0.0877855)
(-0.0406907 0.419514 -0.261893)
(-0.0585091 0.130096 -0.377672)
(-0.0413736 -0.00154101 -0.371762)
(-0.100102 -0.271733 -0.200867)
(0.0127157 -0.253121 -0.227301)
(-0.3386 0.326023 0.309572)
(0.442138 -0.0771015 -0.0162482)
(-0.414999 0.136212 0.0333207)
(0.516834 -0.058693 -0.0364999)
(-0.46694 0.0689513 0.023606)
(0.39176 0.0444386 0.0676726)
(0.513773 0.077246 -0.0454248)
(0.204504 0.193856 -0.160194)
(0.106968 -0.00815058 -0.207945)
(-0.0399302 -0.170871 -0.152843)
(0.33308 -0.163215 -0.0898086)
(0.00111369 -0.196711 -0.0996042)
(-0.258887 0.24697 0.191373)
(0.362651 -0.104413 -0.104811)
(-0.362932 0.154603 0.0931909)
(0.460153 -0.0409263 -0.0547094)
(-0.448122 0.091799 0.0508089)
(0.116346 0.0893846 -0.207775)
(-0.000914316 0.0655602 0.0211817)
(-0.184712 0.0704504 0.0512184)
(0.278429 0.0310013 0.0733028)
(0.0498051 -0.0489803 0.0184341)
(0.0234005 0.0441789 -0.0220495)
(-0.00316937 -0.0433387 0.00909989)
(0.0703273 0.0316621 0.00321849)
(-0.062751 -0.00276457 -0.0171733)
(0.155792 0.287361 -0.270937)
(-0.129285 -0.376052 0.370118)
(0.275999 0.415006 -0.400277)
(-0.511236 -0.348935 0.345836)
(0.593229 0.175565 -0.137071)
(-0.0211657 -0.08601 0.0510319)
(0.0739306 0.125714 -0.0954682)
(-0.0465404 -0.166798 0.126466)
(0.0935556 0.237468 -0.223723)
(-0.29733 -0.266744 0.223721)
(0.206002 0.453859 -0.176199)
(0.349702 -0.00247778 0.0227151)
(-0.193634 0.719149 -0.298749)
(-0.412569 -0.338334 0.467626)
(0.617551 0.00756114 -0.171479)
(-0.601394 0.0644464 0.0364316)
(0.121392 -0.025038 0.0158795)
(-0.0654244 -0.00548203 -0.0206703)
(0.111222 0.0354764 -0.0417243)
(-0.206284 0.100373 -0.122771)
(0.472846 0.0971872 0.0528849)
(-0.0137743 0.126667 -0.294494)
(0.171371 0.107201 -0.0817153)
(-0.0690179 0.0218539 -0.393745)
(0.653848 0.167833 0.121598)
(-0.0393038 0.032082 -0.509823)
(-0.522434 -0.0113616 0.328675)
(-0.073521 -0.0842188 0.0829287)
(0.104114 0.122215 -0.179839)
(-0.225007 -0.0694908 0.132304)
(0.22898 0.282427 -0.12532)
(0.197144 -0.0128472 -0.1263)
(-0.0621634 0.121091 -0.30489)
(0.131151 0.0671248 -0.0839)
(-0.149371 -0.138381 -0.316945)
(-0.422516 0.382088 0.456973)
(0.620241 0.01606 -0.166066)
(-0.609102 -0.0413308 0.0387079)
(0.180487 -0.0506677 -0.0348629)
(-0.22407 0.05454 -0.0565192)
(0.381186 0.243661 -0.0131502)
(0.0339975 0.0619785 -0.260034)
(0.0909361 0.0784787 -0.141552)
(-0.0198475 0.0319276 -0.304318)
(0.328657 -0.0630135 -0.0578073)
(-0.0305748 -0.246991 -0.379111)
(-0.470714 0.254979 0.337539)
(0.543866 -0.0817605 -0.130589)
(-0.462148 0.0987049 0.117741)
(0.0948453 0.328589 -0.166773)
(-0.0432982 0.294797 -0.171612)
(0.0854912 0.068385 -0.187676)
(-0.00771218 0.0948393 -0.261192)
(0.112722 0.0297695 -0.129287)
(-0.0534063 -0.172531 -0.281069)
(-0.298119 0.265831 0.293149)
(0.400018 -0.0917975 -0.121751)
(-0.466787 0.141623 0.137917)
(0.550644 -0.0297516 -0.0967933)
(-0.520337 0.0372031 0.0635583)
(-0.0309315 0.484672 -0.222197)
(0.122824 0.447077 -0.234429)
(-0.105358 0.252766 -0.0861306)
(0.0422482 0.0582993 -0.253046)
(0.0494204 0.0725007 -0.208736)
(0.23958 -0.13637 -0.119709)
(-0.0709342 -0.128465 -0.23336)
(-0.282022 0.197977 0.245041)
(0.372105 -0.131973 -0.119556)
(-0.357169 0.166248 0.123033)
(0.458618 -0.0642478 -0.0573457)
(-0.429085 0.0973642 0.0548219)
(-0.0670394 0.270116 -0.3355)
(0.0198137 0.219347 -0.327432)
(-0.0551238 0.474338 -0.32098)
(0.101539 0.101089 -0.169769)
(0.0435301 0.0781931 -0.272503)
(-0.206408 -0.0106487 0.241847)
(0.238771 0.0455804 -0.0827566)
(-0.279649 0.0538055 0.120441)
(0.40021 -0.00807495 -0.0829866)
(-0.39051 0.0645497 0.0807723)
(0.486124 0.00481037 -0.0541333)
(-0.461903 0.0417123 0.0457982)
(-0.00385297 0.153598 -0.274348)
(0.0850268 0.151836 -0.22171)
(0.051365 0.0858264 -0.406936)
(-0.00124403 -0.0536475 0.0258906)
(0.0684889 0.066583 -0.0432894)
(-0.0386511 -0.0729546 0.0510209)
(0.0964666 0.0898224 -0.0711303)
(-0.0446447 -0.100002 0.0848714)
(0.0927056 0.11042 -0.135229)
(-0.163257 -0.126308 0.154372)
(0.280172 0.132013 -0.169911)
(-0.393161 -0.132839 0.189094)
(0.0317817 -0.046783 0.0315563)
(0.0341207 0.0508537 -0.0270579)
(-0.0164365 -0.0523154 0.0306617)
(0.0833638 0.0707904 -0.00371665)
(-0.107412 -0.0881896 -0.0145914)
(0.183812 0.0350525 -0.295449)
(-0.157706 -0.0672549 0.360579)
(0.299686 0.072323 -0.444589)
(-0.419664 -0.0710681 0.346539)
(0.00238124 -0.0411137 0.0601563)
(0.0649407 0.046774 -0.102637)
(-0.0181211 -0.0353469 0.153225)
(0.0603327 0.017248 -0.246398)
(-0.045654 -0.0571937 0.171574)
(0.141919 0.0137995 -0.289244)
(-0.128879 -0.0201901 0.39408)
(0.276279 0.023983 -0.503177)
(-0.249393 -0.00607251 0.51458)
(0.0398651 -0.0525048 0.0226919)
(0.0395703 0.0583988 0.0132541)
(-0.0511137 -0.0924861 -0.0422793)
(0.118325 0.0207426 -0.200795)
(-0.0867108 -0.0465493 0.225967)
(0.179508 0.0271375 -0.271395)
(-0.163987 0.00817611 0.376653)
(0.30387 -0.0276153 -0.432332)
(-0.41816 0.0655122 0.34846)
(0.0183345 -0.0162949 0.107009)
(0.0251061 0.0101921 -0.188829)
(-0.0111329 -0.0409652 0.0697055)
(0.114884 -0.0262561 -0.154841)
(-0.0778923 0.0261918 0.219264)
(0.184694 -0.0120763 -0.297255)
(-0.141459 0.0609172 0.33458)
(0.28548 -0.0686129 -0.0913856)
(-0.386721 0.104334 0.11375)
(0.0424678 -0.0829261 0.0847152)
(0.096476 0.0780682 -0.113654)
(-0.0848044 -0.157047 0.123028)
(0.136425 0.052454 -0.161493)
(-0.0828635 0.0167721 0.22642)
(0.208127 -0.0126196 -0.27561)
(-0.250815 0.0675888 0.269609)
(0.352683 -0.0646806 -0.193839)
(-0.354989 0.109012 0.181438)
(0.112657 0.257629 -0.0895142)
(-0.0289549 0.422974 -0.113982)
(-0.311431 -0.0224974 0.0966693)
(0.222509 -0.105016 -0.14342)
(-0.113049 0.110617 0.189205)
(0.216397 -0.060245 -0.028782)
(-0.245492 0.106914 0.0770592)
(0.352073 -0.0361248 -0.0386891)
(-0.353101 0.0835532 0.0458424)
(0.0867141 0.158289 -0.157795)
(0.0139306 0.115866 -0.20823)
(0.0495749 0.437945 -0.0686121)
(-0.154078 -0.141003 -0.170842)
(-0.0770523 0.109385 0.182157)
(0.182624 -0.0502898 -0.139417)
(-0.214218 0.101388 0.148746)
(0.0256788 -0.0397487 0.0154318)
(0.0494089 0.0419477 -0.0182949)
(-0.0319961 -0.0383875 0.0165462)
(0.107735 0.0587988 -0.0314603)
(-0.103549 -0.0531934 0.039982)
(0.171681 0.11628 -0.0936325)
(-0.211687 -0.116374 0.128146)
(0.293069 0.139183 -0.123814)
(-0.367297 -0.110374 0.129189)
(-0.00355381 -0.050641 0.0393781)
(0.0709905 0.0642919 -0.055166)
(-0.0295445 -0.0642967 0.0655873)
(0.100778 0.0893822 -0.0859382)
(-0.0369087 -0.0714777 0.100427)
(0.101715 0.0926011 -0.111668)
(-0.169875 -0.0976168 0.139626)
(0.284059 0.102793 -0.134338)
(-0.397712 -0.0866044 0.148128)
(0.0485863 -0.0344004 0.0262685)
(0.035902 0.0362017 -0.0320861)
(-0.00607973 -0.0305132 0.0317888)
(0.100269 0.0753995 -0.061225)
(-0.0992275 -0.0788332 0.0831468)
(0.146629 0.0482078 -0.105103)
(-0.197876 -0.0409769 0.144856)
(0.295695 0.0375836 -0.160546)
(-0.422957 -0.0199208 0.17262)
(-0.00136917 -0.0372558 0.051633)
(0.0746058 0.0413306 -0.0717787)
(0.010294 -0.0118837 0.0755604)
(0.0540389 0.00906167 -0.0819668)
(-0.065359 -0.0199502 0.106666)
(0.136591 0.000613108 -0.10571)
(-0.179329 0.0258804 0.138772)
(0.305057 -0.0652358 -0.134759)
(-0.403004 0.0849228 0.151827)
(0.0593816 -0.0459607 0.0436173)
(0.0609445 0.0458534 -0.0544161)
(-0.0379204 -0.0546128 0.0768943)
(0.0944126 0.0242448 -0.0757768)
(-0.109435 -0.0160313 0.103793)
(0.188353 0.00313629 -0.109877)
(-0.265842 0.0385557 0.135519)
(0.366322 -0.0446286 -0.121315)
(-0.36398 0.0664888 0.130136)
(0.0235154 -0.0143516 0.0489079)
(0.0688975 -0.00441238 -0.0680022)
(-0.0134305 -0.0149019 0.0709389)
(0.089856 -0.00514861 -0.0555302)
(-0.0856536 0.0214397 0.0837971)
(0.188296 -0.0554316 -0.086802)
(-0.232438 0.0850608 0.120568)
(0.33658 -0.0282968 -0.0701899)
(-0.367607 0.0693352 0.0798591)
(0.0526324 -0.0329388 0.0729137)
(0.0934321 0.00824569 -0.12982)
(-0.0599845 0.00368466 0.196013)
(0.126221 0.00632606 -0.112839)
(-0.161845 0.0261987 0.0935373)
(0.254261 -0.0281123 -0.081554)
(-0.24262 0.0675757 0.098601)
(0.347758 -0.0341406 -0.0633586)
(-0.332261 0.0741908 0.0680591)
(0.0383101 -0.0205692 0.0923037)
(0.0767223 0.00373721 -0.118823)
(0.000552872 -0.00147561 0.129844)
(0.098734 0.00482774 0.0371633)
(-0.0488417 -0.0372472 0.0157463)
(0.12126 0.0409676 -0.0337344)
(-0.120719 -0.0394842 0.0324955)
(0.195617 0.0400324 -0.0969321)
(-0.211376 -0.0318179 0.107736)
(0.296138 0.0421846 -0.12111)
(-0.331821 -0.0281161 0.0987664)
(-0.0479507 -0.0244374 0.0568144)
(0.117637 0.0245511 -0.0864941)
(-0.111926 -0.0196582 0.0781295)
(0.187247 0.023859 -0.104522)
(-0.200328 -0.012245 0.122702)
(0.288262 0.0240149 -0.114812)
(-0.327612 -0.00514651 0.111552)
(-0.0530247 -0.0385059 0.0218249)
(0.126903 0.0323974 -0.0722746)
(-0.121058 -0.0213581 0.0807671)
(0.202721 0.0221075 -0.110762)
(-0.211093 0.00130377 0.12886)
(0.302838 0.00929764 -0.12939)
(-0.332223 0.0202257 0.109908)
(-0.0512567 -0.0111626 0.0537418)
(0.134438 0.00454399 -0.0762813)
(-0.12173 0.00694335 0.0866601)
(0.20841 0.00250986 -0.0904249)
(-0.214768 0.0199898 0.102502)
(0.305821 -0.00297238 -0.044456)
(-0.328117 0.0341125 0.0469372)
(-0.0653499 -0.0365584 0.0544425)
(0.144663 0.0225392 -0.0735374)
(-0.122788 0.00305799 0.0883633)
(0.21455 0.00542556 -0.0984235)
(-0.217809 0.0287575 0.104001)
(0.316921 -0.00436044 -0.080586)
(-0.319977 0.0443953 0.0688629)
(-0.0655682 -0.0154026 0.0642311)
(0.172658 -0.00950429 -0.0601796)
(-0.138487 0.02524 0.071976)
(0.232373 -0.00482107 -0.0321357)
(-0.222549 0.0398329 0.0443507)
(0.322132 0.00228958 -0.00938577)
(-0.3192 0.0417907 0.0102904)
(-0.0190538 -0.105485 -0.455052)
(-0.0506505 0.080509 0.377595)
(-0.000916246 -0.150124 -0.501091)
(-0.0140951 0.123693 0.393943)
(-0.00823106 -0.0396322 -0.228041)
(0.0203214 -0.0196934 0.400147)
(-0.0105227 -0.0681169 -0.293075)
(0.0274046 -0.233129 -0.248279)
(0.0767155 -0.0104908 -0.247743)
(0.154099 -0.212637 -0.0958922)
(0.0931431 -0.193725 -0.38037)
(0.0501255 0.0444333 0.328474)
(0.0646231 -0.0710717 -0.208922)
(0.138156 0.226239 0.120467)
(0.0304084 -0.2367 -0.158467)
(0.588823 0.0883745 0.237437)
(0.0666205 -0.122416 -0.418216)
(-0.110241 0.0350758 0.304035)
(0.0711184 -0.0107588 -0.418138)
(0.0541622 0.21499 0.303631)
(0.201806 -0.104925 -0.14404)
(0.577776 0.0860014 0.264427)
(0.118822 -0.0315546 -0.010363)
(0.0797522 -0.0050812 -0.238923)
(0.0582933 0.0091524 -0.232393)
(0.0763407 -0.0491345 -0.217823)
(0.0542727 -0.0489065 0.361534)
(0.141064 0.0399932 -0.181585)
(0.565353 0.0348073 0.253701)
(0.0671507 -0.0112686 -0.392856)
(-0.0100031 -0.0980266 0.41014)
(0.00625911 0.00558802 -0.448092)
(0.556104 0.0587123 0.264175)
(0.117547 -0.029206 -0.0277611)
(-0.00850721 -0.116704 -0.48823)
(-0.172559 0.124204 0.393648)
(0.0305946 -0.152173 -0.501529)
(-0.0624279 0.440901 0.181945)
(0.481094 -0.0516342 -0.0447641)
(0.791774 0.0404307 -0.0245105)
(1.31789 -0.246602 -0.0622012)
(-0.0654305 -0.0143946 -0.14985)
(0.0157561 -0.0211789 0.390998)
(-0.0296607 -0.0832373 -0.342342)