/*--------------------------------*- C++ -*----------------------------------*\
  =========                 |
  \\      /  F ield         | OpenFOAM: The Open Source CFD Toolbox
   \\    /   O peration     | Website:  https://openfoam.org
    \\  /    A nd           | Version:  10
     \\/     M anipulation  |
\*---------------------------------------------------------------------------*/
FoamFile
{
    format      ascii;
    class       volVectorField;
    location    "0.1";
    object      wallShearStress;
}
// * * * * * * * * * * * * * * * * * * * * * * * * * * * * * * * * * * * * * //

dimensions      [0 2 -2 0 0 0 0];

internalField   uniform (0 0 0);

boundaryField
{
    inlet
    {
        type            calculated;
        value           nonuniform List<vector> 0();
    }
    outlet
    {
        type            calculated;
        value           nonuniform List<vector> 0();
    }
    walls
    {
        type            calculated;
        value           nonuniform List<vector> 0();
    }
    drone
    {
        type            calculated;
        value           nonuniform List<vector> 
13374
(
(-0.00519347 0.00561866 -0.00214688)
(-0.00794066 0.00476697 -0.00183324)
(-0.0103579 -0.00354533 0.00171284)
(-0.00420616 0.0048353 -0.0015222)
(-0.0119327 0.00418877 -0.000275543)
(-0.0023423 0.00298894 0.00101249)
(-0.0136221 0.00527976 -0.000516159)
(-0.00201986 0.00174443 0.000748916)
(-0.0018978 -0.00127467 0.000911096)
(-0.00216323 -0.00208088 0.00133651)
(-0.00606668 -0.00700214 0.00138945)
(-0.00680999 -0.00359763 0.000617611)
(-0.00175857 -0.00435482 0.000656089)
(-0.00851426 -0.00258599 0.00384652)
(-0.0020584 0.00218859 -0.000279632)
(-0.0130796 0.00234017 0.00507246)
(-0.00266169 -0.00259085 0.000313821)
(-0.00703586 0.00559794 -0.00145892)
(-0.0040343 0.00705208 -0.0023002)
(-0.0112759 -0.0059945 0.000279109)
(-0.00197707 0.00132176 -0.000161484)
(-0.0196016 0.00827291 -0.00118617)
(-0.00146437 0.000599621 0.000559504)
(-0.00878027 0.00311364 3.37242e-05)
(-0.000734764 0.000538685 -0.00105091)
(-0.000664769 -6.9563e-05 0.000346743)
(-0.00145954 -0.000307192 0.00213659)
(-0.0118048 0.00532724 0.0016023)
(-0.00536084 -0.00156672 -0.0005225)
(-0.00379253 -0.00277333 0.00102315)
(-0.0147045 -0.00431725 0.000387328)
(-0.0141221 0.00897663 0.000943422)
(-0.00114509 -0.000239576 0.000392634)
(-0.00443968 -0.00532658 0.00180403)
(-0.00608637 -0.00614849 0.00132947)
(-0.0076956 -0.00234518 -0.000654364)
(-0.0110949 -0.00309584 -0.000355878)
(-0.0201185 -0.00515764 0.000415235)
(-0.0106375 0.00186799 -0.00063169)
(-0.00271255 -0.000365868 -0.00105237)
(-0.00209831 -0.00028231 -0.00102132)
(-0.00438068 -0.000259264 -0.00191901)
(-0.00346325 -0.00112108 -0.0018101)
(-0.00505041 -0.000767429 -0.000875441)
(-0.00440265 -0.000707526 -0.00126491)
(-0.00697289 0.000277262 -7.16259e-05)
(-0.00438287 -0.00081358 -0.00127668)
(-0.00528439 -0.00088583 -0.000453889)
(-0.00954629 0.00418235 0.00430058)
(-0.00287735 0.00134939 -0.00111676)
(-0.0100063 -0.000741511 -0.000257998)
(-0.00647263 -0.00030898 -0.000589618)
(-0.00506612 -0.000140031 -0.00106896)
(-0.00266797 -3.33608e-05 -0.000736073)
(-0.0073501 0.000320679 -1.15143e-05)
(-0.00723324 0.00048176 0.000104236)
(-0.0129179 0.00121776 0.000361677)
(-0.0131071 0.00108353 0.000306047)
(-0.0106842 0.00209924 -0.000556234)
(-0.00820831 0.00133127 -0.000334245)
(-0.00958222 0.00225164 0.00061315)
(-0.00873023 0.00147428 -0.000411611)
(-0.00962938 0.0017484 -0.000861025)
(-0.00926539 0.00173312 -0.000443261)
(-0.00605828 0.00478649 -0.00182299)
(-0.00647931 0.00360488 0.00227783)
(-0.0126038 0.00287789 -0.000639434)
(-0.00773318 0.00132417 -0.000481799)
(-0.00568254 5.92859e-05 -0.00038876)
(-0.0121745 0.00269759 -0.00058723)
(-0.00972544 0.00223321 -0.000323204)
(-0.00543712 0.00384131 -0.00136278)
(-0.0131263 0.00270204 -0.00151332)
(-0.00855566 -0.00184804 -0.00108907)
(-0.00301242 -0.000494176 -0.000226888)
(-0.00325814 0.00161058 -0.00159634)
(-0.00701573 0.000392088 -0.000281937)
(-0.00973072 0.000634879 -0.000488219)
(-0.0103804 0.000658608 -0.000451216)
(-0.00505619 0.00277868 -0.00145726)
(-0.00682735 -0.000234637 -0.000582783)
(-0.00962326 -0.00029912 -0.000755253)
(-0.00909483 -0.00033123 -0.00075523)
(-0.00208327 -0.00208186 0.000354728)
(-0.0039004 -0.00489823 0.000704734)
(-0.0040068 -0.00367278 0.00064604)
(-0.00380775 -0.00359594 0.000623039)
(-0.0064572 0.000208124 -0.000749272)
(-0.00339122 -8.63779e-05 -0.000221922)
(-0.00301346 -0.000176219 -1.82912e-05)
(-0.00287882 -0.000197369 2.21741e-05)
(-0.00294553 1.53299e-05 -0.00146147)
(-0.00630466 -0.000347343 -0.000386786)
(-0.00404601 -0.000303311 -0.000295615)
(-0.00231496 -0.000158497 1.25125e-05)
(-0.00294753 -0.000274265 6.09406e-05)
(-0.00160928 -0.000119323 1.33564e-05)
(-0.00213441 -0.000268467 -7.12541e-06)
(-0.00156069 -0.000119501 -9.36617e-05)
(-0.00221324 -0.000167171 -0.000273389)
(-0.00195169 -0.000195159 -5.60775e-06)
(-0.00153883 -0.000165951 -2.06128e-06)
(-0.00200321 -0.000267121 3.29482e-05)
(-0.00153139 -0.000159693 -9.30898e-06)
(-0.00209307 -0.00015989 -0.000277442)
(-0.00147263 -0.000166283 -0.000122258)
(-0.00211492 -0.000192833 -0.00031623)
(-0.00146911 -0.000155735 -0.000116149)
(-0.00173769 1.13097e-05 -0.000391378)
(-0.00184833 -0.000105247 -0.000337077)
(-0.0047664 -0.000105964 -0.000993679)
(-0.00348996 0.00170245 -0.000296163)
(-0.00456851 0.00156308 -0.00027167)
(-0.00048441 0.000827152 9.22265e-05)
(-0.011304 -4.04688e-05 0.000651751)
(-0.00621258 0.00207931 0.000949501)
(-0.00427363 0.00386994 0.00134073)
(-0.00101077 0.00116032 -0.000154789)
(-0.000871702 0.000988494 -9.74901e-05)
(-0.00542902 0.000445566 -2.97762e-05)
(-0.0033702 -0.000147562 -0.000171608)
(-0.00384849 -0.000162935 -0.000221369)
(-0.00409571 -0.000535179 -0.00054027)
(-0.00298136 -0.000186171 -0.000142157)
(-0.00296929 -0.000330184 -0.000146364)
(-0.000415186 0.000301149 -0.000142345)
(-0.0166507 0.000556814 -0.00394954)
(-0.00388827 0.000401658 -0.000592071)
(-0.00390956 0.000254504 -0.000557984)
(-0.0047328 -9.52173e-05 -0.000509558)
(-0.0106226 0.00141837 -0.000523065)
(-0.00277441 -0.000614587 -0.000279519)
(-0.00527589 -0.000271015 0.000490733)
(-0.00657156 -0.000418001 0.000116234)
(-0.0093648 -0.00352289 0.00273208)
(-0.000456029 -0.00114227 -0.00034595)
(3.14191e-05 -0.000251504 0.000565654)
(-0.00244882 -8.57764e-05 -2.19926e-05)
(-0.00326216 -3.07756e-05 -3.13807e-05)
(-0.00290148 0.00360496 -0.00314031)
(-0.00523175 -0.000159948 -0.000425406)
(-0.0136277 0.00142442 0.000576014)
(-0.0136992 0.00129082 0.000474021)
(-0.00816901 0.0017499 -0.00014776)
(-0.00719903 0.00133042 -0.000176513)
(-0.0033959 9.42581e-05 0.000247957)
(-0.00381913 0.000124049 0.000407992)
(-0.00199337 -0.000118976 -5.93847e-05)
(-0.00946351 -0.00336104 -0.00586317)
(-0.00450713 -0.000900537 -0.00199377)
(-0.00989738 0.000145436 -0.000439869)
(-0.00284633 0.000419455 -0.00369944)
(-0.00207325 0.000146436 -0.00103519)
(-0.00267438 6.14427e-05 -0.00135041)
(-0.00282896 0.000525401 -0.00343414)
(-0.00583288 0.00545763 -0.00216718)
(-0.00575916 0.00107558 -0.000962135)
(-0.00993126 0.00184803 -0.00188017)
(-0.00478688 0.000282219 -0.000669205)
(-0.00532408 0.000337793 -0.000703192)
(-0.00294589 -0.000262948 -0.000305518)
(-0.00415271 -0.000313607 -0.00032293)
(-0.00651728 -0.00214979 -0.000631547)
(-0.00456678 -0.00122049 -0.000548712)
(-0.0031565 1.04194e-05 -0.000273553)
(-0.00352687 7.94349e-05 -0.000361374)
(-0.00341615 2.17503e-05 -0.000350885)
(-0.00353108 1.2036e-05 -0.000353699)
(-0.00372119 0.000255902 -0.000561544)
(-0.00361753 0.000102171 -0.000549232)
(-0.00350306 -0.00013097 0.000107558)
(-0.00293809 -0.000251758 7.35985e-05)
(-0.00502816 -0.000559742 0.000437941)
(-0.00328493 -0.000487576 0.000235791)
(-0.00320413 -0.000145455 0.000144173)
(-0.00174688 -0.000299962 0.000650298)
(-0.00111013 -0.000243351 0.000788253)
(-0.0019652 -0.00027202 0.000671489)
(-0.00623849 -0.000142986 0.000465053)
(-0.00357912 -0.000200453 -2.36845e-05)
(-0.00566014 -0.000392126 6.90673e-05)
(-0.00258872 -0.000234298 0.00017478)
(-0.00227466 -0.000303444 -5.79741e-06)
(-0.00392144 -0.000176415 -9.32459e-05)
(-0.00489909 -0.000418496 -0.000446677)
(-0.0023737 -0.000186495 -0.000314466)
(-0.00321464 -0.00026245 -0.000278081)
(-0.00299906 -0.000354852 -0.000384548)
(-0.00203968 -0.000206154 1.57694e-06)
(-0.00209546 -0.000297794 4.41921e-05)
(-0.00190856 -0.000174965 -7.27141e-06)
(-0.00144831 -0.000139576 -4.62148e-05)
(-0.00181375 -0.000120757 3.02888e-05)
(-0.00150561 -0.000155529 -1.85361e-05)
(-0.00199462 -0.000179939 3.78897e-06)
(-0.00191801 -0.000100327 6.36573e-05)
(-0.00146296 -0.000124599 -5.43251e-05)
(-0.00183655 -7.6616e-05 4.46267e-05)
(-0.0019951 -4.99825e-05 7.23063e-05)
(-0.00222784 -0.000155076 -0.000279019)
(-0.00234636 -0.000197036 -0.000296688)
(-0.0020511 -0.00015122 -0.000277421)
(-0.00142087 -0.000130893 -0.000165948)
(-0.00144923 -0.000151341 -0.000122378)
(-0.00192387 -0.000127135 -0.000369304)
(-0.00217152 -0.000143317 -0.000277907)
(-0.0014345 -0.000139776 -0.000181055)
(-0.00192256 -3.44942e-05 -0.000450161)
(-0.00217232 -8.61807e-05 -0.00040652)
(-0.00188152 2.60517e-05 -0.000660493)
(-0.00562222 -3.91059e-05 -0.00033265)
(-0.00714264 0.000564767 0.000144518)
(-0.00564718 0.000536074 -4.74613e-05)
(-0.0052695 0.000963005 -8.01028e-05)
(-0.00460596 -8.78643e-05 -0.000492759)
(-0.0047865 0.000529869 -0.000155692)
(-0.00611857 0.00096581 4.9542e-05)
(-0.00455087 0.000645505 0.000113758)
(-0.00726766 0.000501565 0.00015594)
(-0.00565089 8.49414e-05 0.000273123)
(-0.00454478 3.10558e-06 0.000112236)
(-0.00737189 0.000649717 0.000174806)
(-0.00611111 -7.85524e-06 0.000162213)
(-0.00884197 0.000205136 0.000240981)
(-0.00983888 0.00356737 -0.000895805)
(-0.00773049 -0.000316424 0.00012353)
(-0.0137872 -3.63457e-05 0.000287667)
(-0.00897802 0.000368441 8.17738e-05)
(-0.0110658 0.00261224 -0.000142445)
(-0.00490694 -0.00211381 0.0001422)
(-0.00334859 -0.00212279 0.000217892)
(-3.80398e-05 0.000174667 2.76369e-05)
(-0.00729705 0.00197352 -0.000391648)
(-0.0123063 -0.00654576 0.00186973)
(-0.00442779 0.00194886 0.00192197)
(-0.0115544 0.00221783 0.0015472)
(-0.00409611 0.00166311 0.00166302)
(-0.0119356 0.00197882 0.00108317)
(-0.0152759 -0.00179814 -0.00108746)
(-0.000111115 0.00072569 8.89746e-05)
(-0.0177575 -0.000853319 0.000164596)
(-0.000277615 0.000460541 1.31406e-05)
(-0.000509183 0.000642094 0.000440572)
(-0.000115254 0.000587358 0.00013312)
(-0.0150133 -0.001402 -0.00129467)
(-0.00772468 0.000933874 0.0011812)
(-0.00691365 0.000969344 0.0012818)
(-0.00310705 0.00215364 -0.000609077)
(-0.00328272 0.0025287 -0.000775071)
(-0.00539859 0.00433756 -0.000481095)
(-0.00905361 0.000125479 -0.00291022)
(-0.0090707 0.00178134 -0.000321971)
(-0.0128965 -0.000207717 -0.000600556)
(-0.0135773 0.000288307 0.000633974)
(-0.0209524 0.00193828 0.00084071)
(-0.00847673 0.00165462 -0.000376084)
(-0.00715155 0.000298712 -0.00295753)
(-0.00958972 0.0020018 -0.000392701)
(-0.00882561 0.00134698 -0.000530382)
(-0.0102654 0.00202811 -0.000771353)
(-0.00943326 0.000473633 -0.00325928)
(-0.0107466 0.00204891 -0.000691929)
(-0.00952836 0.0017519 -0.000394463)
(-0.0155374 -6.01763e-05 -0.00466947)
(-0.00954125 0.00190045 -0.000410126)
(-0.0312215 0.003624 0.00117875)
(-0.00811433 0.00220542 0.00185702)
(-0.00936964 0.00264852 0.00186041)
(-0.0184659 0.00383162 0.00432814)
(-0.00270187 0.00220719 -0.000109201)
(-0.00296445 0.00242908 0.000133958)
(-0.00938915 0.00535967 0.00416701)
(-0.00216178 0.00185595 -0.000125878)
(-0.00528627 0.00397382 -0.00142817)
(-0.00257619 0.00214893 -2.6601e-05)
(-0.00548531 0.004202 -0.00143766)
(-0.00263478 0.00213489 0.00010851)
(-0.00276951 0.00233981 3.30054e-06)
(-0.00275001 0.00228415 0.000102384)
(-0.0096851 0.00122867 0.000457696)
(-0.0102936 0.00218501 -0.000413759)
(-0.0103227 0.00187309 -0.000373283)
(-0.00971161 0.00199485 1.46579e-05)
(-0.00976588 0.00168612 -0.000272533)
(-0.00889901 0.000874679 0.000493485)
(-0.00908271 0.00141978 -0.00031705)
(-0.00966948 0.00185559 -0.000348356)
(-0.00920863 0.00175985 3.75349e-05)
(-0.0108553 0.00204237 -0.000312425)
(-0.00808356 0.00129798 -0.000365989)
(-0.00639115 0.00140333 6.75392e-06)
(-0.00899421 0.00195868 -0.000255561)
(-0.00875778 0.0012444 -0.00051576)
(-0.00914387 0.00188133 -0.00037987)
(-0.0089665 0.00157496 0.000105814)
(-0.00910872 0.00187031 -0.000378162)
(-0.00529892 0.000753447 1.6432e-05)
(-0.00886137 0.00182009 -0.000241568)
(-0.00837978 0.00172993 -0.000376983)
(-0.0049667 0.000918451 -8.88984e-05)
(-0.00268326 -0.00016826 -0.000533048)
(-0.00750464 0.00129933 -0.000381925)
(-0.00347628 -0.000500507 -0.000620147)
(-0.00390474 0.000292665 -0.000117318)
(-0.00349229 -0.000632055 -0.000550564)
(-0.00296059 0.00235017 -0.000278495)
(-0.00218361 0.00181636 -0.000152755)
(-0.00272715 0.00226004 -2.19354e-05)
(-0.00251942 0.00208396 -0.00038738)
(-0.00881887 0.00119323 0.00114906)
(-0.00265371 0.002179 -0.000145216)
(-0.00811674 0.00114825 0.00129995)
(-0.00296299 0.00233637 -9.82332e-05)
(-0.00296236 0.00233733 -9.8179e-05)
(-0.00111875 0.00117136 -0.000132643)
(-0.00112015 0.00117115 -0.000132441)
(-0.00119393 0.00118808 -9.66088e-05)
(-0.00364051 0.00324132 0.00102664)
(-0.00620357 -0.000270009 -0.00102553)
(-0.010614 0.00193463 -0.000786454)
(-0.00796116 9.51166e-05 -0.00111781)
(-0.00132927 0.00148795 -6.17647e-05)
(-0.0012412 0.00128932 -8.41589e-05)
(-0.0102728 0.0018032 -0.000709885)
(-0.0075797 -0.000229363 -0.00105114)
(-0.00135688 0.00130565 -8.47198e-06)
(-0.00135699 0.00130557 -8.4333e-06)
(-0.00699373 -0.000321201 -0.00116341)
(-0.00123822 0.00121212 -0.000144016)
(-0.00321017 7.042e-05 0.000200587)
(-0.00261854 6.19021e-06 2.58342e-05)
(-0.00204567 -3.13237e-05 -1.13599e-05)
(-0.00246726 -1.09535e-05 8.13769e-06)
(-0.00423203 8.9037e-05 0.000258505)
(-0.00422022 5.2534e-06 0.00050126)
(-0.00281685 -2.12494e-05 1.40429e-05)
(-0.00369083 -0.00014007 -1.28977e-05)
(-0.00400444 0.00023701 0.000166137)
(-0.00372511 0.000119956 3.11785e-05)
(-0.00482579 0.000367448 -0.000184594)
(-0.00438723 0.000340211 0.000181622)
(-0.00412356 0.0003165 0.000224024)
(-0.00423122 0.000283147 0.000103381)
(-0.00427482 0.00029347 -9.62323e-05)
(-0.00293587 1.6811e-05 -8.72542e-05)
(-0.00367596 9.4205e-05 1.30344e-05)
(-0.00743133 0.000549784 -0.000282188)
(-0.00414303 -0.000141864 -0.000217305)
(-0.00342077 -6.85291e-05 -0.000248328)
(-0.00259242 -0.000107737 -3.274e-05)
(-0.00266802 -1.88354e-05 -8.96514e-05)
(-0.00212753 -5.6299e-05 -1.72862e-05)
(-0.00366088 -3.27795e-05 -0.000273623)
(-0.00426182 0.000249813 -0.000148934)
(-0.00306204 -0.000340658 -0.000210659)
(-0.00399857 -0.000310123 -0.000153183)
(-0.00257262 -5.48133e-05 1.72314e-05)
(-0.00278127 -0.000190439 -6.64912e-05)
(-0.00291808 -0.000210253 -8.57428e-05)
(-0.00384551 -0.000282222 -0.000125189)
(-0.00267147 -0.000314874 -0.000184171)
(-0.00469036 -0.000968941 0.000104966)
(-0.00617857 -0.00068352 -0.000639356)
(-0.0030576 -0.000319867 -0.000297306)
(-0.00338236 -0.00070424 0.00025563)
(-0.00298423 -0.000318738 -0.00014179)
(-0.00269044 -0.000297899 -2.02651e-05)
(-0.00245159 -0.000182686 -1.09775e-05)
(-0.00207064 -0.000176624 -3.83945e-05)
(-0.00276535 -0.000278058 -4.41959e-05)
(-0.00555266 -0.00108054 -0.000555793)
(-0.00227853 -0.000365445 8.2729e-05)
(-0.00303279 -0.000570487 -0.000310687)
(-0.00187304 -0.000265801 -0.000238801)
(-0.00415593 -0.00103764 -0.0014644)
(-0.00415462 -0.00103716 -0.00146385)
(-0.00415974 -0.00103825 -0.00146537)
(-0.00265654 0.0016459 -0.000349126)
(-0.00265019 0.00172319 -0.000129377)
(-0.000601496 0.000681332 -0.000184878)
(-0.00507918 0.000867697 -0.00521328)
(-0.00124477 0.00128759 -0.000305846)
(-0.000900222 0.000927493 -0.000203974)
(-0.00496633 0.000864702 -0.00492896)
(-0.000520981 5.9417e-05 -0.000749711)
(-0.00312024 0.000729899 -0.0036383)
(-0.00193648 0.000115811 -0.000981661)
(-0.000520587 0.000164788 -0.000632125)
(-0.000608598 0.000746017 -0.0016401)
(-0.000515004 -5.99325e-05 -0.000665721)
(-0.000443983 0.000660278 -0.000908552)
(-0.000230891 3.85189e-05 0.000257038)
(-0.000661041 -0.000612875 0.000106698)
(-0.000115692 -0.00048174 -0.000794101)
(-0.000433577 0.000116299 0.000211239)
(-0.000665429 0.000645357 -0.00128158)
(-0.00034479 0.000728445 -0.00124945)
(-0.000691842 0.000108232 -0.000487503)
(-0.000646595 8.70607e-05 0.000191944)
(-0.00058246 -0.000348755 -0.000828497)
(-0.0171066 0.000642368 0.00212582)
(-0.0077707 0.000757753 8.12375e-05)
(-0.00783135 0.000899181 9.02116e-05)
(-0.0132115 0.000308491 -0.000374911)
(-0.00251568 0.00205485 0.00144119)
(-0.00825822 0.000735768 0.000492343)
(-0.00287081 0.00340595 0.00130008)
(-0.00832752 0.000892997 0.000401952)
(-0.0157778 0.00175097 -0.000404331)
(-0.00718792 0.000396314 -0.000423435)
(-0.010853 -0.000245661 -0.000705095)
(-0.0110878 -7.43707e-05 -0.000777162)
(-0.00688218 0.00604535 0.00300784)
(-0.0194621 -0.00107585 -0.00135484)
(-0.00618825 0.000461371 -0.000953434)
(-0.00725439 -0.00013132 -0.000756429)
(-0.00981255 0.000924759 -0.000524489)
(-0.00676905 0.000499117 -0.00100798)
(-0.0120065 0.000266727 0.000513012)
(-0.0129862 0.000356919 0.000407161)
(-0.00300736 -0.000674352 -0.000294157)
(-0.00245333 -0.000338028 -0.000268106)
(-0.00200185 -0.000271725 -0.000321238)
(-0.00326925 -0.000744086 -0.000247309)
(-0.00887266 -0.00224145 -0.000329996)
(-0.00227482 -0.000366947 -0.000317289)
(-0.00530921 -0.00121121 -0.000409351)
(-0.00534471 -0.00108556 -0.00062192)
(-0.0106183 -0.000744101 0.000575908)
(-0.0111311 -0.000803145 0.000592905)
(-0.00318797 -0.000360924 0.000186407)
(-0.00436112 -0.000294989 0.000122672)
(-0.0106845 -0.000772502 0.00059808)
(-0.00274658 -0.000380367 0.000232107)
(-0.00321127 -0.000449717 0.000351758)
(-0.00335463 -0.000482292 0.000351129)
(-0.0021965 -0.00189309 0.00123227)
(-0.000734596 -0.000220003 0.000443072)
(-0.0104434 -0.00445121 0.00376241)
(-0.00282225 -0.000848571 0.00100677)
(-0.00451914 -0.00136147 0.00177573)
(-0.00433206 -0.00135988 0.00174031)
(-0.00428425 -0.00133149 0.00171209)
(-0.00427986 -0.0013262 0.00170767)
(-0.00235641 -0.000931198 0.00157317)
(-0.0031195 -0.00136741 0.00138873)
(-0.000474598 -0.000432562 0.000584044)
(-0.000740528 -0.000337602 0.00053787)
(-0.000446929 -0.000481473 0.000561807)
(-0.000151005 0.000429966 0.000737051)
(-0.000230359 -0.000492251 -0.00035646)
(-0.0005057 -0.000442614 2.62933e-05)
(-0.000194163 0.000411294 0.000304798)
(-0.000938024 6.89744e-05 0.000193015)
(-0.000341595 -0.000622958 -0.000189498)
(-0.000472274 -0.000609575 0.000477003)
(-0.000204781 0.000474232 0.000328937)
(-0.000271091 0.000345817 -9.80547e-05)
(0.000163688 -0.000379284 0.000607642)
(-0.000261132 -0.000674223 0.000555443)
(-0.000583069 -0.000392635 0.000647671)
(4.19604e-05 -0.000431247 0.000772851)
(-0.000281228 0.000444642 0.000314193)
(-0.000635733 -0.000360006 0.000624478)
(-0.00065967 -0.000247778 0.00063014)
(-0.00360784 0.000158469 -0.000586571)
(-0.00326382 0.000171496 -0.000647699)
(-0.0029768 -1.557e-05 -0.000237266)
(-0.00298335 -4.5195e-05 -0.000126949)
(-0.00265719 4.37654e-05 -0.000267439)
(-0.00660962 6.93187e-05 -0.000740172)
(-0.00283661 1.8956e-05 -0.000111187)
(-0.00336385 3.68693e-05 -0.00049946)
(-0.00322828 2.74977e-06 -0.000216604)
(-0.00298082 1.53596e-05 -0.000109182)
(-0.00246471 -2.95053e-05 -0.00018978)
(-0.00234564 -0.000104389 -2.75959e-05)
(-0.00259937 -0.000195488 -9.83084e-05)
(-0.00312317 -0.00025622 -0.000160259)
(-0.00175383 -8.26454e-05 -0.000126431)
(-0.00234745 -8.5899e-05 -5.94504e-05)
(-0.00305218 -8.28336e-05 -0.000218081)
(-0.00300013 -0.000267305 -0.000152154)
(-0.0031347 -0.00031793 0.000267534)
(-0.00277401 -0.000327653 0.000345167)
(-0.00339022 -0.000268671 0.000252944)
(-0.0025139 -0.000230912 0.000197189)
(-0.00244515 -0.000252271 -3.58269e-05)
(-0.00302665 -0.00034002 0.000123006)
(-0.00162513 -0.000181867 -3.68987e-06)
(-0.00240061 -0.000255385 0.000203282)
(-0.00224225 -9.04152e-05 0.000154083)
(-0.00321903 -0.000301066 0.000137177)
(-0.00308563 -0.000263737 0.000252382)
(-0.00261799 -0.000405026 0.000313437)
(-0.00405735 -0.000777867 0.000894463)
(-0.00198333 -0.000174238 0.000358418)
(-0.00207915 -0.000113031 0.000261121)
(-0.00265182 -0.000190816 0.000370624)
(-0.0058527 0.000268921 -0.00134236)
(-0.00243526 8.0543e-06 5.65299e-05)
(-0.00267653 -0.000274996 0.000626784)
(-0.00204213 -0.000266917 0.000542517)
(-0.00517156 -0.000477062 0.00111574)
(-0.00416165 -0.000499098 0.000992943)
(-0.00490239 -0.000242351 0.00122337)
(-0.0140694 0.00125071 0.000613956)
(-0.00240859 -0.00032069 -0.000804994)
(-0.00225721 3.23787e-06 -0.000598755)
(-0.00144721 -5.7455e-06 -0.000436552)
(-0.00154206 -6.14422e-05 -0.000413781)
(-0.00163871 -2.42265e-05 -0.000380766)
(-0.0075106 0.0083038 9.7704e-05)
(-0.00629867 -0.000671417 -0.000698545)
(-0.00740848 -0.000691642 -0.000201696)
(-0.00766088 -0.000827541 -0.000467181)
(-0.00404188 -0.000539039 -0.00142011)
(-0.000293439 0.000334859 -0.000124902)
(-0.0025064 0.00332442 0.000566787)
(2.61621e-05 0.0006247 -0.000213197)
(-0.000592303 0.000356445 -0.000100526)
(-0.000793663 0.000680134 -9.70156e-05)
(-0.00429257 0.00127247 -0.0028561)
(-0.00227832 0.00248435 0.00175133)
(-0.00272131 -0.00155227 0.00175178)
(-0.00632111 0.000218465 -0.000180497)
(-0.00670341 0.000102558 -0.000210397)
(-0.0115723 -7.74552e-05 0.000637228)
(-0.00843146 0.00165858 -0.00032817)
(-0.00369736 0.000122362 0.00023923)
(-0.0042923 0.000234392 0.000166851)
(-0.00306172 -0.000342142 -0.000104165)
(-0.00400474 -0.000418495 -6.98335e-05)
(-0.00602265 -0.000407456 -3.83606e-05)
(-0.00379706 -0.00029003 -4.19774e-05)
(-0.00792397 -0.000179668 -0.00061626)
(-0.00797749 0.00109165 -7.24414e-05)
(-0.00235218 -0.000521843 -0.000526743)
(-0.0025154 -0.000633062 -0.000691768)
(-0.00839121 0.00212152 -0.00229414)
(-0.00917979 -0.00120802 -0.00115805)
(-0.010094 -0.00149828 -0.00124025)
(-0.00766747 0.000703569 -0.000793194)
(-0.00563943 0.000312278 -0.000459365)
(-0.00757561 -0.000884876 -0.00100879)
(-0.00928536 -0.00196747 -0.00121019)
(-0.00949439 -0.00207076 -0.00125214)
(-0.00945199 -0.00208998 -0.00125636)
(-0.00761606 -0.0010416 -0.00100708)
(-0.0057233 -0.000948108 -0.00096567)
(-0.00325595 -0.0022395 0.000810986)
(-0.00325807 -0.00227604 0.000812481)
(-0.00323454 -0.00224495 0.000806135)
(-0.00208563 -0.0015191 0.000674946)
(-0.00683672 0.000292495 -0.00245015)
(-0.0023303 -0.000618253 0.00109802)
(-0.00274213 -0.000742994 0.00224643)
(-0.00204488 -0.000399954 0.000935407)
(-0.00224264 -0.000352557 0.000765739)
(-0.00182455 -0.000362007 0.000775679)
(-0.00398544 -0.000649161 0.00157681)
(-0.00312332 -0.000271557 -0.00042147)
(-0.00177411 -5.22414e-05 -0.000464483)
(-0.003206 -0.000219825 -0.000329287)
(-0.00238215 -2.58812e-05 -0.000580652)
(-0.00511615 -6.96447e-05 -0.00106754)
(-0.00209949 -1.38146e-05 -0.000373734)
(-0.00513532 -4.05072e-05 -0.00104191)
(-0.0024231 7.31623e-05 -0.000704323)
(-0.00220282 -4.00941e-06 -0.000774985)
(-0.00218046 8.78216e-05 -0.000710982)
(-0.00710078 0.000172838 -0.000126337)
(-0.00742244 0.000415557 1.5619e-05)
(-0.00715324 0.000318578 -8.06587e-05)
(-0.0067012 0.000592949 0.000239484)
(-0.00733633 0.000493835 9.87955e-05)
(-0.00687079 0.000524986 0.000210883)
(-0.00811886 0.000544506 0.0001293)
(-0.00880458 0.000218167 0.000119699)
(-0.00148756 0.00156395 -5.02037e-05)
(-0.00407562 -0.000243592 0.000523659)
(-0.00290943 8.00956e-05 0.000416257)
(-0.00888869 0.00160555 -0.000155564)
(-0.00176088 -0.00196216 -0.00189617)
(-0.00213883 -0.000450416 -0.00257166)
(-0.00866637 0.0022691 0.00264885)
(-0.00850645 0.00287177 0.0022208)
(-0.00409953 -3.77308e-05 0.000485259)
(-0.00285835 0.000649466 0.0010224)
(-0.00395823 0.000318357 0.000312341)
(-0.0116919 0.00136694 -9.3964e-05)
(-0.0125335 0.00145482 0.000448475)
(-0.0113155 0.0016143 -0.00017448)
(-0.00740179 0.00494306 -0.00357334)
(-0.000874783 0.000680669 0.00147283)
(-0.000403354 0.000106925 0.000121006)
(-0.00362718 0.000742592 -0.000385313)
(-0.0149398 0.00157257 8.37818e-05)
(-0.0138239 0.000384904 8.59893e-05)
(-0.00863667 0.00117577 0.000160668)
(-0.0115906 0.0018373 -1.22169e-05)
(-0.00762634 0.000720595 0.00063703)
(-0.0045673 0.00358975 -0.000982968)
(-0.00874216 -0.00013875 -0.00283772)
(-0.00870577 0.00157446 -0.000372798)
(-0.00737675 0.00116292 -0.000284267)
(-0.0154408 0.00109658 0.00117954)
(-0.0143788 0.00153845 0.000951163)
(-0.0155877 0.00135202 0.000827043)
(-0.00938615 0.0017701 -0.000539234)
(-0.00876074 0.00133187 -4.2717e-05)
(-0.00923511 0.00186765 -0.00090604)
(-0.0146257 0.00337753 -0.00779561)
(-0.0142581 0.00432197 -0.0090247)
(-0.0266435 0.00226684 -0.00934659)
(-0.00967156 0.00191719 -0.000443511)
(-0.00978542 0.00199159 -0.000533193)
(-0.0133706 0.0016567 0.000702194)
(-0.00677403 0.0021059 0.000867811)
(-0.00982104 0.00111833 -0.00460809)
(-0.00531361 0.00275023 -0.00423493)
(-0.00324732 0.00256192 -0.000519941)
(-0.00324772 0.00256194 -0.000519949)
(-0.00665239 0.00527002 0.00126533)
(-0.00302607 0.00244238 -0.000313495)
(-0.00392122 0.00256405 -0.000851989)
(-0.00289629 0.00232099 -0.000424955)
(-0.00414006 0.0030023 0.000286167)
(-0.00996118 0.00578366 0.00416996)
(-0.0118714 0.00252835 -0.000245586)
(-0.0105323 0.00233767 -0.000460237)
(-0.0106236 0.00219672 -0.000482055)
(-0.00728403 0.00115317 -0.000301831)
(-0.0088373 0.00158136 -0.000251798)
(-0.00858514 0.00144571 -0.000345511)
(-0.00738288 0.000732113 -0.000236998)
(-0.0070383 0.000650156 -0.000237857)
(-0.00901834 0.00128628 -0.000146633)
(-0.0114178 0.00226749 -0.000611514)
(-0.0090476 0.00220276 -0.00016494)
(-0.00919108 0.00210925 -0.000210607)
(-0.00830464 0.00152491 -0.000293626)
(-0.00586656 0.00131006 0.00103842)
(-0.00699688 0.00174635 0.00143146)
(-0.00506986 -0.000181007 -4.49856e-05)
(-0.00524371 -0.000169338 -0.000233581)
(-0.00592685 0.000252115 -6.34679e-05)
(-0.00945655 0.0022006 -0.000317214)
(-0.00852188 0.00211234 -0.000176021)
(-0.00778094 0.00187197 -0.000207987)
(-0.00752303 0.000396868 -0.000475528)
(-0.00466108 -0.000437844 -0.000574132)
(-0.00421051 -0.000520207 -0.000188935)
(-0.00580522 -0.00173156 -0.000916964)
(-0.00453182 -0.000952831 -0.000396353)
(-0.00563689 0.00315783 -0.0019223)
(-0.00555393 0.00456238 -0.00112948)
(-0.00571963 0.00407362 0.00122646)
(-0.00961769 0.0040958 0.00278441)
(-0.00880979 0.0047388 -0.00417038)
(-0.0116885 0.00652383 -0.00446091)
(-0.0080497 0.00166185 0.00135368)
(-0.00757602 0.0065261 -0.000668471)
(-0.00885195 0.00722616 0.00061109)
(-0.00474751 -0.00110186 -0.00170429)
(-0.0100722 0.00198402 -0.000995354)
(-0.00787802 0.00508374 0.0030312)
(-0.0089432 0.000807476 -0.000696453)
(-0.00491501 -0.000937163 -0.00138182)
(-0.0219066 0.000134455 -0.000992094)
(-0.00696472 -0.000952615 -0.00111166)
(-0.00357978 -0.000778509 -0.00159632)
(-0.00328372 5.24231e-05 0.000113643)
(-0.00401264 0.000174818 2.69706e-05)
(-0.00234896 -6.43467e-05 3.51677e-05)
(-0.00365615 7.52309e-06 0.00034085)
(-0.00371732 1.17067e-06 0.00030883)
(-0.00284174 -9.06006e-05 5.28225e-05)
(-0.00252829 -8.06949e-05 3.5106e-05)
(-0.00411281 -6.56077e-05 0.000295549)
(-0.0032347 6.51577e-05 0.000307512)
(-0.00326625 1.43386e-05 0.000265064)
(-0.00385149 -4.02052e-05 0.000305992)
(-0.00379721 -0.000229042 -6.17663e-05)
(-0.00256304 -0.00034603 -0.000107662)
(-0.00261576 -0.000399458 -0.000165777)
(-0.00241307 -0.000165147 -8.47604e-05)
(-0.00233527 -0.000114465 -2.56598e-05)
(-0.00994702 -0.0023808 0.000715148)
(-0.00465804 -0.000463322 -0.000193102)
(-0.00372374 -0.00051428 -0.000198596)
(-0.00346308 -0.000251379 -0.000107599)
(-0.00238642 -0.000356781 -0.000133372)
(-0.00487207 -0.000849965 -0.000287049)
(-0.00160226 0.000154107 -0.000642575)
(-0.000421332 0.00102283 -0.00269768)
(-0.00104432 0.00013875 -0.0031623)
(-0.000274833 0.00222148 -0.00344384)
(-0.00136582 0.00135582 -0.00328877)
(-0.00324049 0.00184906 0.00230144)
(-0.000805427 6.12317e-05 0.000115984)
(-0.00223979 0.00248021 -0.000127944)
(-0.00105744 -0.000300422 0.00126844)
(-0.00786169 0.000337581 0.000142128)
(-0.0102816 0.00175707 -0.000257359)
(-0.00233272 -0.000175709 1.01914e-05)
(-0.00764819 -0.00102571 -0.000723888)
(-0.00788522 -0.00219981 0.000285575)
(-0.00712867 -0.00119113 0.000116923)
(-0.00403234 -1.49928e-05 -0.00308567)
(-0.0034022 0.00125766 -0.00317588)
(-0.00278126 0.00417062 -0.00089105)
(-0.00379534 0.000433581 -0.00320002)
(-0.00665588 -0.000539999 -0.00533912)
(-0.00483045 -0.00404956 -0.00376963)
(-0.00830107 -0.00248889 0.00332824)
(-0.00768753 0.000503835 0.000353552)
(-0.00672412 0.000351437 -0.000423953)
(-0.00798724 0.000602839 0.000683361)
(-0.0128669 0.00434766 0.00420392)
(-0.00766845 0.000423635 -0.000337019)
(-0.0152446 0.000842958 -0.000651787)
(-0.0133788 0.00071414 -0.000909237)
(-0.0152806 -0.000396586 0.000259629)
(-0.0125705 0.000432274 -0.000632146)
(-0.0159041 0.000828306 -0.000558288)
(-0.0186903 0.000466411 -0.00013684)
(-0.00705558 0.00280628 -0.00270227)
(-0.0117987 0.0015607 -0.00154621)
(-0.00793213 0.000466191 -0.000334459)
(-0.0127593 0.000294718 -0.000343349)
(-0.00988604 0.000260534 -0.00037369)
(-0.0123112 0.000434953 0.00115697)
(-0.00605313 0.000648666 -0.000748749)
(-0.00832716 0.000322574 -0.000434714)
(-0.00872684 0.000433979 -0.000816387)
(-0.0146677 0.000780609 -0.000902331)
(-0.0034881 0.000573208 -0.000622454)
(-0.00427068 0.000942514 -0.000717232)
(-0.0112003 0.00165112 -0.00145546)
(-0.0108023 0.00196696 -0.0011973)
(-0.00284935 -0.000150728 -0.000223726)
(-0.007904 -0.000261531 -0.000768268)
(-0.0031992 -0.000108383 -0.000280016)
(-0.0113429 0.00153731 -0.00149086)
(-0.00573659 0.000642602 -0.000943626)
(-0.0117846 0.00129496 -0.00156597)
(-0.0130181 0.00141728 -0.00138962)
(-0.0205993 -0.0012721 7.29097e-05)
(-0.0117439 -0.000531219 -0.000981807)
(-0.0034117 0.000187458 -0.000255848)
(-0.00788128 -0.00167642 -0.000793494)
(-0.00492089 -0.00086882 -0.000743077)
(-0.00742395 -0.00153105 -0.000530911)
(-0.0173491 -0.000985696 -7.48288e-05)
(-0.00856281 -0.000439893 -0.000834352)
(-0.0170083 -0.00085062 -0.000434739)
(-0.0142495 -0.00285865 0.000935814)