/*--------------------------------*- C++ -*----------------------------------*\
  =========                 |
  \\      /  F ield         | OpenFOAM: The Open Source CFD Toolbox
   \\    /   O peration     | Website:  https://openfoam.org
    \\  /    A nd           | Version:  10
     \\/     M anipulation  |
\*---------------------------------------------------------------------------*/
FoamFile
{
    format      ascii;
    class       volVectorField;
    location    "0";
    object      wallShearStress;
}
// * * * * * * * * * * * * * * * * * * * * * * * * * * * * * * * * * * * * * //

dimensions      [0 2 -2 0 0 0 0];

internalField   uniform (0 0 0);

boundaryField
{
    inlet
    {
        type            calculated;
        value           uniform (0 0 0);
    }
    outlet
    {
        type            calculated;
        value           nonuniform List<vector> 0();
    }
    walls
    {
        type            calculated;
        value           uniform (0 0 0);
    }
    drone
    {
        type            calculated;
        value           nonuniform List<vector> 
7103
(
(-0.428948 -0.0208017 0.00809785)
(-0.502099 -0.0556101 0.00804806)
(-0.488965 -0.0974854 -0.0607392)
(-0.437949 0.101102 -0.111873)
(-0.433932 0.0111466 -0.0433478)
(-0.279798 0 0)
(-0.275347 0 -1.36971e-17)
(-0.398989 -0.0209621 0.0804007)
(-0.433038 0.0182483 -0.0564506)
(-0.433741 0.0180758 0.00628139)
(-0.452522 0.00443687 0.0147334)
(-0.418656 -0.0575496 0.0010343)
(-0.437943 -0.0288116 -0.131563)
(-0.459464 -0.00820752 -0.0403663)
(-0.420897 -0.0078575 0.0427097)
(-0.34896 -0.0228502 0.00576309)
(-0.50087 0.0585899 0.00791831)
(-0.424258 0.0435938 0.00548669)
(-0.335991 -0.0120995 0.000739109)
(-0.326663 -0.0202477 -0.000726043)
(-0.42249 -0.041854 0.0107885)
(-0.340851 0.0004742 2.86011e-05)
(-0.342133 -0.0341619 -0.00437087)
(-0.366902 0.0249522 -0.0418317)
(-0.447377 -0.0034834 -0.0911693)
(-0.341371 0.00026541 1.51512e-05)
(-0.450847 0.0361841 -0.0361174)
(-0.416203 -0.0239717 -0.0310249)
(-0.433252 -0.0244424 0.119602)
(-0.505274 0.0550381 0.00070915)
(-0.489192 -0.0695296 -0.00817489)
(-0.454053 0.0423245 -0.0822767)
(-0.427466 0.0924578 -0.0880979)
(-0.356057 0.0431544 -0.0321924)
(-0.433349 -0.0293736 -0.127153)
(-0.430836 -0.116582 -0.0500604)
(-0.429005 -0.0206607 -0.00520304)
(-0.365873 -0.126214 -0.0587261)
(-0.341105 -0.000834615 -4.94908e-05)
(-0.3388 -0.00490141 -0.000171984)
(-0.405335 0.106677 0.0348276)
(-0.340765 0.0171251 0.000983293)
(-0.422708 0.0577289 0.00945216)
(-0.341929 0.0375084 0.00458757)
(-0.458597 -0.0173842 -0.0389508)
(-0.381785 -0.0138039 -0.0284154)
(-0.289331 0.000126317 -0.00438683)
(-0.31784 -0.000297765 -0.00451216)
(-0.269531 0.000121518 0.0039069)
(-0.292277 0.000113241 -0.00216793)
(-0.289597 0.000125791 -0.00442938)
(-0.43935 -0.0577952 0.0214814)
(-0.435313 -0.0566561 0.0233279)
(-0.358354 3.66301e-07 -4.7523e-06)
(-0.348728 3.2608e-07 -4.23391e-06)
(-0.289557 0.000135316 -0.00383409)
(-0.349671 -0.000900251 0.00664258)
(-0.317292 -0.000396077 0.00669255)
(-0.346135 -0.00394702 0.0155993)
(-0.342904 -0.00474858 0.0172874)
(-0.303343 -1.17693e-05 0.000989114)
(-0.332672 -0.00709995 0.0211656)
(-0.277597 0 -1.36527e-17)
(-0.269143 0 -4.4231e-17)
(-0.338693 -0.00485227 -0.0187987)
(-0.338938 0.000192811 0.004633)
(-0.33964 -0.00338467 -0.0154802)
(-0.408733 0 0)
(-0.344243 -0.00027652 -0.00561259)
(-0.342657 0 -1.39887e-17)
(-0.269391 0 1.776e-17)
(-0.336903 0.003128 0.0147858)
(-0.280413 0.00013058 -0.00337596)
(-0.340649 8.97842e-06 0.00100799)
(-0.404661 -0.0561441 1.31809e-05)
(-0.361654 -0.050175 2.28038e-06)
(-0.361634 -0.0501852 -3.18345e-06)
(-0.435206 -0.0615003 -0.0126352)
(-0.385086 -0.0534357 -1.75488e-06)
(-0.372497 -0.0537647 4.86453e-18)
(-0.324621 -0.00750942 -0.0228514)
(-0.453356 -0.0629108 -3.56938e-05)
(-0.371019 -0.0120807 2.037e-17)
(-0.346956 0.0172486 -2.6454e-17)
(-0.345447 0.000155238 0.0042853)
(-0.410382 -0.0502257 -0.0294116)
(-0.410061 0.00477736 -0.0533939)
(-0.313535 0.000167768 -0.004621)
(-0.310457 9.70178e-05 -0.00259837)
(-0.282121 0.000131153 -0.00369279)
(-0.284181 0.00012355 -0.00259425)
(-0.27333 -0.000189454 0.00289481)
(-0.282684 0.000111712 -0.00337887)
(-0.271414 0.000114264 -0.00431577)
(-0.287516 0.000125049 -0.00262569)
(-0.276408 0.000114593 -0.00456391)
(-0.281314 0.000119549 -0.00412475)
(-0.269594 -1.77266e-05 0.00727851)
(-0.274093 0.000108638 -0.00423176)
(-0.269665 0 6.2224e-18)
(-0.37938 0 -9.88879e-18)
(-0.421105 0 3.36957e-18)
(-0.497658 -0.0582674 0.0410243)
(-0.309736 0.000116679 0.00348138)
(-0.321026 0.000134146 -0.00548415)
(-0.345042 5.89903e-05 -0.00762864)
(-0.291854 0.0001247 -0.00457423)
(-0.296388 7.18384e-05 -0.00179531)
(-0.288371 0.000125542 -0.00263618)
(-0.292418 0.000134705 -0.00396821)
(-0.298191 5.50094e-05 -0.00123431)
(-0.292885 0.000125134 -0.00459072)
(-0.286803 0.000121182 -0.00455913)
(-0.289053 0.000125676 -0.00263976)
(-0.291676 0.000124927 -0.0045533)
(-0.388498 -0.0539034 -1.37912e-06)
(-0.477824 -0.0538676 -0.0426224)
(-0.379028 -0.0525918 -1.52569e-05)
(-0.387772 -0.0538007 1.00742e-05)
(-0.360372 -0.0499781 -4.61522e-06)
(-0.360483 -0.0500625 3.51509e-06)
(-0.385179 -0.0534489 -6.64752e-06)
(-0.356218 -0.0494356 1.70047e-06)
(-0.356227 -0.0494108 2.6112e-06)
(-0.419077 -0.00181069 -0.0191487)
(-0.402117 -0.0470995 0.0331055)
(-0.365899 -0.0507886 -5.81655e-06)
(-0.384257 -0.0533212 2.46869e-05)
(-0.303407 1.07309e-05 -0.000546843)
(-0.304291 -4.86283e-05 0.00111402)
(-0.36486 -0.0526624 1.99641e-06)
(-0.281926 0.000122311 -0.00260048)
(-0.329047 -0.000524039 0.0043932)
(-0.348624 0.000151671 -0.00318595)
(-0.332739 -0.000415535 0.00371749)
(-0.285468 0.000124282 -0.00260931)
(-0.348824 0.00015164 -0.00318405)
(-0.337027 3.10042e-07 -4.02361e-06)
(-0.424106 2.32251e-05 -0.0106035)
(-0.339156 -0.00162488 -0.0181894)
(-0.33986 2.16007e-05 -0.00834733)
(-0.351781 -0.0507726 4.12657e-06)
(-0.351851 -0.050787 2.47706e-05)
(-0.373201 -0.0538661 1.22748e-05)
(-0.358554 -0.0517521 -1.0132e-05)
(-0.396233 8.87536e-05 -0.000818528)
(-0.303021 0.000132699 -0.00296626)
(-0.270387 0 4.31759e-17)
(-0.276152 0 8.11623e-18)
(-0.284548 0 -2.2503e-18)
(-0.270338 0 -3.0657e-17)
(-0.272116 0 1.43592e-17)
(-0.28419 0 -1.2495e-17)
(-0.279884 -0.0119957 -2.38168e-06)
(-0.344208 0 -9.30808e-18)
(-0.450772 -0.0625572 2.12107e-05)
(-0.343487 0 6.53582e-18)
(-0.280317 -0.0120203 -1.24784e-18)
(-0.635462 -0.0206434 0.000112672)
(-0.415722 0 0)
(-0.368357 -0.0119913 4.79611e-05)
(-0.354645 -0.0115222 -3.9358e-20)
(-0.449425 -0.0129347 0.0411193)
(-0.416033 0 -1.70333e-17)
(-0.516118 0.0461167 0.000276655)
(-0.421389 -0.0120845 0.0385244)
(-0.346412 0 -1.27377e-17)
(-0.357057 0 -1.67769e-17)
(-0.364239 0 -4.92677e-18)
(-0.344234 0 1.59279e-17)
(-0.351455 0 0)
(-0.371447 0 -1.17569e-17)
(-0.272865 0 0)
(-0.267399 0 2.8568e-17)
(-0.327668 -0.00620945 0.029517)
(-0.359715 0.000168024 0.00431949)
(-0.354382 0.000160072 0.00444076)
(-0.33787 0.00015826 0.00415341)
(-0.344827 0.000155051 0.00428061)
(-0.353753 0.000158618 0.00368208)
(-0.3381 0.000157402 0.00383886)
(-0.350753 0.000156885 0.00493057)
(-0.438081 -0.0632309 -6.34038e-06)
(-0.351193 0.000157069 0.0036252)
(-0.325792 -0.0062721 -0.0197455)
(-0.329652 -0.0475805 -7.51924e-18)
(-0.284525 0.000126681 -0.00311679)
(-0.348428 0.000148909 0.00315263)
(-0.436311 -0.0629749 1.94615e-05)
(-0.332826 0.000154208 0.00380878)
(-0.516651 -0.0422118 -0.00135403)
(-0.333128 0.000145958 0.00323522)
(-0.422355 -0.0135745 -0.0351541)
(-0.541563 -0.0547762 -0.0455439)
(-0.319703 -0.000328776 0.00419882)
(-0.333929 0 1.41033e-17)
(-0.322149 0 0)
(-0.332614 -0 2.37098e-19)
(-0.346205 -0.008164 0.0334421)
(-0.353127 -5.4007e-05 0.00965372)
(-0.460596 -0.0276604 0.0547079)
(-0.424492 -0.0335793 0.0497899)
(-0.456878 -0.0168156 -0.0376988)
(-0.399655 -0.0554631 -3.11892e-05)
(-0.4665 -0.0647443 3.36585e-05)
(-0.510645 -0.0596679 0.0423041)
(-0.385883 -0.0556972 -9.4161e-06)
(-0.492331 -0.0710615 -1.6666e-05)
(-0.413224 -0.0568232 -0.0177495)
(-0.453277 -0.0556201 0.0328319)
(-0.364681 -0.0206735 -0.0336505)
(-0.365461 -0.00862395 0.0353211)
(-0.390387 -0.0500816 0.010775)
(-0.329859 -0.00778635 0.0318588)
(-0.328159 -1.05934e-07 -1.37831e-06)
(-0.309199 0.000132244 0.00280235)
(-0.274245 0.000114439 -0.00241038)
(-0.289373 0.000135429 -0.00378526)
(-0.287842 0.000122966 -0.00451132)
(-0.288338 0.000126395 -0.00433626)
(-0.532406 -0.0430959 -0.0466335)
(-0.277861 0.000120994 0.00439918)
(-0.31401 0.000190483 0.00391189)
(-0.255181 0.00735618 0.0651988)
(-0.268005 0.000114376 0.00242236)
(-0.265391 0.000115239 0.00414018)
(-0.400685 0.0277273 -0.0416125)
(-0.357836 -0.007223 -0.0330281)
(-0.339902 -0.00804335 -0.0329344)
(-0.350536 1.77689e-05 -0.00867318)
(-0.301471 0.00012827 -0.00278051)
(-0.300401 0.000143012 -0.00312947)
(-0.289678 0.000131241 -0.00282067)
(-0.292738 0.000125775 -0.00265099)
(-0.323189 3.97722e-05 -0.00589798)
(-0.32894 0.000156877 -0.00488418)
(-0.30502 6.90597e-05 -0.00417425)
(-0.28839 0.00012317 -0.00451967)
(-0.289804 0.000135059 -0.00387448)
(-0.290151 0.000125412 -0.00447006)
(-0.451697 -0.0626795 -2.8783e-05)
(-0.447601 -0.0621026 -2.77421e-06)
(-0.426573 -0.0591976 5.2786e-05)
(-0.473553 -0.0178441 -0.0490447)
(-0.449482 -0.0623751 2.75908e-05)
(-0.437907 -0.0607768 -8.53334e-06)
(-0.446472 -0.0619642 2.44899e-06)
(-0.36068 -0.00809887 0.0235107)
(-0.270915 8.16559e-05 -0.00535771)
(-0.349393 0.000153615 -0.00365618)
(-0.325606 -0.00742019 0.0214065)
(-0.342012 -6.80935e-08 8.83156e-07)
(-0.289043 0.000131685 -0.00298683)
(-0.288251 0.000131717 -0.00301178)
(-0.287659 0.000125178 -0.00262883)
(-0.427499 0.000188303 -0.00498762)
(-0.425281 0.000190469 -0.00507429)
(-0.349856 -0.00358103 -0.0260311)
(-0.314917 0.000113879 -0.00552797)
(-0.336374 6.36608e-05 -0.00649165)
(-0.39491 0.000145058 -0.00261691)
(-0.370084 -0.00291917 0.0135237)
(-0.382557 0.000111288 -0.00182794)
(-0.325125 -0.00611363 0.0194186)
(-0.302486 -2.03809e-07 0.000190671)
(-0.298196 3.07968e-05 -0.00129598)
(-0.475049 -0.0580857 -0.0341308)
(-0.426489 -0.0558781 0.0250426)
(-0.375006 -0.0458566 -0.0269261)
(-0.4317 -0.0623099 2.20065e-05)
(-0.468407 -0.0222343 0.0461182)
(-0.263685 0 -3.55031e-18)
(-0.280573 0 2.09673e-17)
(-0.281642 0 1.40802e-17)
(-0.282941 0 -1.33461e-17)
(-0.271962 0 -3.38783e-18)
(-0.277793 0 2.04634e-17)
(-0.279818 0 1.35686e-17)
(-0.346637 0 5.68277e-18)
(-0.472448 -0.0584161 -0.0205345)
(-0.342739 0 1.14787e-17)
(-0.314587 0.00371934 0.00958206)
(-0.387251 -0.0476711 0.0223911)
(-0.379024 0 -1.46852e-17)
(-0.33828 -0.0060779 -0.0315813)
(-0.417232 0 1.7175e-17)
(-0.340337 0.000285512 -0.00571563)
(-0.344476 0 -2.1463e-17)
(-0.501837 -0.0565181 0.0434269)
(-0.357229 0 -1.22522e-17)
(-0.421202 0 -9.95866e-18)
(-0.343301 0 0)
(-0.404753 0 0)
(-0.352175 0 1.64256e-17)
(-0.274293 0 -1.15664e-17)
(-0.369212 0.000166171 0.00457334)
(-0.423042 0.000195648 0.00592693)
(-0.334171 0.000150415 0.00414088)
(-0.33652 -0.0060185 -0.0195401)
(-0.319218 -0.00778074 -0.0215581)
(-0.342146 0.000147754 0.0031684)
(-0.276768 0.000121221 -0.0027132)
(-0.283227 0.000128956 -0.00294522)
(-0.510911 -0.0698503 -0.023156)
(-0.418288 -0.0544671 -0.0251052)
(-0.322576 -0.00625993 -0.0196172)
(-0.357224 0 6.5381e-18)
(-0.422377 0 -9.51483e-19)
(-0.378267 0 -1.47386e-17)
(-0.341853 0.000115736 0.00363482)
(-0.403978 -0.0353835 -0.0446352)
(-0.446912 0.00834523 0.0549405)
(-0.270515 0.00012521 0.0036404)
(-0.273969 0.000119196 0.00433261)
(-0.275925 0.000119965 0.00436407)
(-0.277013 0.00012036 0.00437967)
(-0.27279 0.000118586 0.00431467)
(-0.524956 0.000228789 0.00815917)
(-0.4258 0.000185011 0.00673817)
(-0.353384 -1.65759e-07 0.00899806)
(-0.469468 -0.0170714 0.0514223)
(-0.40155 -0.055716 -3.67325e-08)
(-0.335646 -0.046577 1.21297e-05)
(-0.331331 -0.0459699 -1.03921e-05)
(-0.356004 -0.0494093 -1.05107e-07)
(-0.372115 -0.0516329 1.30902e-05)
(-0.372816 -0.051736 -1.3629e-05)
(-0.387308 -0.0537382 6.94289e-18)
(-0.506136 -0.073053 4.57504e-06)
(-0.373189 -0.0538644 -1.22742e-05)
(-0.443815 -0.0640583 -2.31442e-05)
(-0.390358 -0.0563432 2.5303e-05)
(-0.33688 -0.0486079 5.30545e-06)
(-0.336885 -0.0486416 5.29004e-06)
(-0.342102 -0.0493525 -2.41583e-05)
(-0.342194 -0.0494158 -2.40323e-05)
(-0.441561 -0.063733 3.4071e-05)
(-0.344671 -0.0497606 1.92196e-05)
(-0.348241 -0.0503177 -6.58547e-06)
(-0.444437 -0.0615344 0.00327166)
(-0.376643 0.00355116 -4.43908e-17)
(-0.368109 -0.0119833 -4.79285e-05)
(-0.373384 0.00364911 -0.00181527)
(-0.430977 0.0140011 -9.02662e-05)
(-0.371191 0.0120722 -1.07383e-19)
(-0.365563 0.011882 5.72814e-05)
(-0.446119 0.0144663 -7.49489e-05)
(-0.48025 -0.0666419 1.98858e-05)
(-0.357074 -0.0495174 -3.21666e-18)
(-0.357092 -0.0495759 -3.28771e-18)
(-0.344818 -0.00350516 0.0253891)
(-0.322726 -0.00497223 0.0269577)
(-0.343182 -0.000342223 0.0119402)
(-0.333906 -0.00131782 0.0169076)
(-0.343554 -0.0495523 6.67122e-18)
(-0.343612 -0.0496513 6.36181e-18)
(-0.379906 -0.0103983 -0.0273264)
(-0.465651 -0.0085867 -0.0264408)
(-0.354058 -0.0202113 -0.034347)
(-0.330837 8.03464e-05 0.00122575)
(-0.315613 0.00013434 0.00285399)
(-0.325831 2.02518e-07 2.63317e-06)
(-0.331705 -8.91797e-08 -1.16104e-06)
(-0.341374 1.6559e-05 0.000221213)
(-0.317132 0.00013689 0.00291386)
(-0.316089 -0.00325786 -0.0140017)
(-0.410094 -0.00468913 -0.0529287)
(-0.330032 -0.00581183 -0.0290984)
(-0.368576 -0.0511401 1.7092e-17)
(-0.335561 -0.00187438 -0.0190309)
(-0.35209 -0.048843 -1.62497e-05)
(-0.352136 -0.0488807 -1.64166e-05)
(-0.406361 -0.00829841 0.0374018)
(-0.38873 -0.0163341 0.0438182)
(-0.28652 0.000129264 -0.00308607)
(-0.288684 0.000135058 -0.00346423)
(-0.292625 0.000124799 -0.00263954)
(-0.285897 0.000125162 -0.00264606)
(-0.458039 -0.00925207 0.0421203)
(-0.278162 0.000121831 -0.00257653)
(-0.28604 0.000122856 -0.00259231)
(-0.281782 0.000117402 -0.00248726)
(-0.270915 6.03301e-05 -0.00109513)
(-0.279681 -1.73999e-05 0.000949759)
(-0.279136 5.10956e-05 -0.00118603)
(-0.286034 0.000118091 -0.00277416)
(-0.282451 5.51966e-05 -0.00187428)
(-0.283826 8.72357e-05 -0.00200707)
(-0.288856 0.000131439 -0.00298328)
(-0.287929 0.000130905 -0.00297015)
(-0.288466 0.000134959 -0.00373544)
(-0.283574 0.000121072 -0.00444413)
(-0.276497 0.000118111 -0.0043347)
(-0.28485 0.000121625 -0.00446336)
(-0.286317 0.000131533 -0.00362756)
(-0.278897 0.000119152 -0.0043727)
(-0.285691 0.000125627 -0.00425648)
(-0.275997 7.28103e-06 0.000217507)
(-0.264435 4.62507e-06 3.52958e-05)
(-0.275877 3.75124e-05 -0.0035779)
(-0.281759 0 1.42146e-17)
(-0.281209 0 -1.13622e-17)
(-0.418371 0.0383951 -4.48466e-06)
(-0.506713 0.0629882 0.0328555)
(-0.437761 0.0401634 -3.51294e-05)
(-0.336613 0.0483111 -0.00419127)
(-0.340463 0.0516259 0.00443847)
(-0.317275 -0.0056469 0.015151)
(-0.350743 0 0)
(-0.347741 0 -1.68374e-17)
(-0.327802 0.000927792 -0.00259453)
(-0.328322 0.00028529 -0.000904965)
(-0.456839 0.053719 0.0265021)
(-0.358207 -0.0476733 8.82458e-06)
(-0.287149 2.5871e-05 0.0018824)
(-0.281403 0.000122348 0.00444707)
(-0.282172 0.000122691 0.00446354)
(-0.287066 8.50888e-05 0.00357228)
(-0.274266 0.00011939 0.00433981)
(-0.277916 0.000120798 0.00439288)
(-0.335884 0.000145866 0.00530434)
(-0.276834 0.000124758 0.00410746)
(-0.287266 0.000122557 0.00259716)
(-0.283407 0.000127733 0.00420697)
(-0.287599 0.000131276 0.00325889)
(-0.284285 0.000130503 0.00325352)
(-0.275413 0.000119691 0.00435327)
(-0.276721 0.000123492 0.00421787)
(-0.274749 0.000119548 0.0043436)
(-0.257787 0.000478244 -0.00559068)
(-0.251762 -0.00451865 -0.00256139)
(-0.261045 -0.000128441 0.00396231)
(-0.273345 0.000116761 0.00247486)
(-0.26703 0.000111644 0.00231062)
(-0.272237 0.000114439 0.00271872)
(-0.257724 0.000120246 0.00351253)
(-0.259711 0.000114864 0.0040795)
(-0.256814 0.000111565 0.00398805)
(-0.467777 -0.0485476 0.038112)
(-0.371757 -0.00715619 -0.0337697)
(-0.467595 -0.011186 -0.0454609)
(-0.370352 -0.00208955 -0.0214457)
(-0.303374 0.000128352 -0.00470314)
(-0.352021 0.000105458 -0.0074453)
(-0.347022 -0.00411638 -0.0270218)
(-0.350833 0.000149881 -0.00549798)
(-0.348551 8.65342e-05 -0.00737133)
(-0.292581 0.000123984 -0.00457487)
(-0.290277 0.000124045 -0.00455093)
(-0.290633 0.000124037 -0.00455443)
(-0.299323 0.000110232 -0.00250591)
(-0.293923 0.000109398 -0.00236876)
(-0.293682 0.000120796 -0.00257427)
(-0.288654 0.000125643 -0.00263734)
(-0.29083 0.000126654 -0.00265815)
(-0.29119 0.000126733 -0.00266073)
(-0.292955 0.000133352 -0.00303649)
(-0.291903 0.000132647 -0.00300799)
(-0.292312 0.000127203 -0.00267074)
(-0.303717 1.2537e-05 -0.00265525)
(-0.301033 0.000111238 -0.00444556)
(-0.298677 8.16956e-05 -0.00413289)
(-0.305477 9.46993e-05 -0.0020989)
(-0.295117 0.000107908 -0.00253764)
(-0.298208 0.000103881 -0.00345641)
(-0.294374 0.000121138 -0.00456815)
(-0.293752 0.000133726 -0.00400043)
(-0.29532 0.000113257 -0.00452708)
(-0.288361 0.00012315 -0.00451959)
(-0.289068 0.000123411 -0.0045303)
(-0.289938 0.000123823 -0.00454467)
(-0.288865 0.000131553 -0.00301413)
(-0.290785 0.000131927 -0.00299632)
(-0.29066 0.000135334 -0.00391159)
(-0.289801 0.000123778 -0.00454243)
(-0.291527 0.000135685 -0.00393647)
(-0.290904 0.000125204 -0.00450934)
(-0.372272 -0.0516577 2.5016e-05)
(-0.359029 -0.0498294 -1.0609e-05)
(-0.463725 -0.0421826 -0.0516878)
(-0.452222 -0.0627478 2.43966e-05)
(-0.415784 -0.057701 -3.22123e-06)
(-0.390396 -0.0427128 -0.0358712)
(-0.378765 -0.0525531 -2.76878e-06)
(-0.377526 -0.0523853 -3.0134e-06)
(-0.369461 -0.0512561 4.44779e-06)
(-0.415787 -0.0577016 3.22123e-06)
(-0.388507 -0.0539002 -4.42029e-06)
(-0.450398 -0.0624933 2.01644e-05)
(-0.358946 -0.0497865 -1.16018e-05)
(-0.392304 -0.0544273 1.05205e-05)
(-0.365952 -0.0507538 -1.01757e-05)
(-0.366019 -0.0508266 -6.46903e-06)
(-0.456321 -0.0102206 -0.0434759)
(-0.37937 -0.0526382 -1.12035e-05)
(-0.450316 -0.0624806 2.43077e-05)
(-0.389704 -0.0149179 -0.0427685)
(-0.321008 -0.00622332 -0.0290824)
(-0.340635 -0.00691839 -0.0312897)
(-0.464604 -0.0644697 3.4838e-05)
(-0.456529 -0.0633511 1.35314e-05)
(-0.460419 -0.0639024 1.32992e-05)
(-0.40962 -0.010058 -0.0396019)
(-0.445992 -0.061885 -0.0050531)
(-0.362923 -0.00751914 -0.0334306)
(-0.365996 -0.0508066 -1.72151e-05)
(-0.365991 -0.0507327 -9.77951e-06)
(-0.376232 -0.0522064 1.32666e-05)
(-0.381712 -0.0529736 7.13284e-06)
(-0.385024 -0.0534269 -1.79828e-05)
(-0.510206 -0.063163 0.0356708)
(-0.314061 0.000121133 -0.00319111)
(-0.318368 -0.000166735 -0.00507764)
(-0.3451 -0.00829907 0.0232941)
(-0.400893 -0.0093142 0.0263888)
(-0.326469 7.22242e-05 -0.000983909)
(-0.317898 -3.14876e-05 0.000423611)
(-0.505499 -0.0729615 -4.63795e-05)
(-0.427729 -0.0617365 1.67476e-05)
(-0.420598 -0.0605944 -0.00370773)
(-0.358914 -0.0517713 -9.80689e-06)
(-0.360112 -0.0520259 5.3693e-06)
(-0.273161 0.000124721 -0.00293118)
(-0.340903 0.00015017 -0.00378698)
(-0.341303 0.000147478 -0.00331226)
(-0.348903 0.000155705 -0.00334086)
(-0.343701 0.000156141 -0.00354665)
(-0.343321 8.31617e-06 -0.000109229)
(-0.337998 -0.00185098 0.0104955)
(-0.343622 0.000154647 -0.00405145)
(-0.340087 -8.45385e-08 1.09769e-06)
(-0.288054 0.000125251 -0.00263004)
(-0.284546 0.000124047 -0.0026153)
(-0.28597 0.000124513 -0.00261395)
(-0.28805 0.000125365 -0.00263136)
(-0.343725 0.000149839 -0.00314514)
(-0.347225 0.000150935 -0.00317004)
(-0.342198 0.000156112 -0.00380305)
(-0.343264 0.000157138 -0.00363001)
(-0.346582 0.000150649 -0.00316412)
(-0.335324 -0.00720362 -0.0314024)
(-0.423427 0.00018109 -0.00663757)
(-0.350051 -0.000288767 -0.0117023)
(-0.349055 0.000149159 -0.0054722)
(-0.34718 -0.000478342 -0.0129377)
(-0.430197 0.000183732 -0.00674253)
(-0.359889 0.000153627 -0.00563963)
(-0.351016 5.82992e-05 -0.00809235)
(-0.361861 0.0056108 -0.0245229)
(-0.340011 9.67161e-05 -0.00584024)
(-0.349118 0.000148153 -0.00546827)
(-0.362711 0.000157341 -0.00632804)
(-0.360616 0.000153415 -0.00565267)
(-0.492532 0.000221898 -0.00594373)
(-0.427713 -0.000274241 0.00296478)
(-0.364039 -0.00760078 0.0229353)
(-0.336083 -0.00806829 0.0226646)
(-0.416573 -0.00232717 0.0133903)
(-0.456099 -0.0189579 0.0399626)
(-0.394861 -0.0217515 0.0371529)
(-0.450321 -0.0122021 0.0321585)
(-0.358236 -0.0517061 1.39086e-05)
(-0.413107 -0.0503987 -0.0298278)
(-0.447733 -0.064624 9.51546e-06)
(-0.346946 -0.0500371 -3.86709e-06)
(-0.358408 -0.0517309 -1.75658e-05)
(-0.438513 -0.062498 0.00993723)
(-0.384178 -0.0212038 0.0353138)
(-0.350045 -0.0504697 -8.85601e-07)
(-0.342786 -0.0494761 5.0217e-06)
(-0.342831 -0.0494829 4.99549e-06)
(-0.410287 0.000179748 -0.00471965)
(-0.339668 9.78649e-05 -0.00173551)
(-0.33482 -0.00228239 0.0114569)
(-0.418169 -0.0541524 0.0256726)
(-0.336686 3.06539e-05 -0.000422212)
(-0.319656 -0.00614959 0.0192961)
(-0.422754 -0.0610182 -6.26801e-05)
(-0.420805 -0.0606986 0.00217602)
(-0.437655 -0.0620024 0.0120744)
(-0.359631 -0.0494918 0.013388)
(-0.311958 0.000111241 -0.00211153)
(-0.352527 -0.0509076 -4.95319e-06)
(-0.340456 -0.0491662 1.4551e-05)
(-0.3404 -0.0490955 1.4859e-05)
(-0.316204 1.93891e-05 -0.000261079)
(-0.384478 -0.046987 0.0276058)
(-0.348909 -0.0502708 1.25375e-05)
(-0.41781 -0.0603048 2.98134e-06)
(-0.31631 0.000192858 -0.00348779)
(-0.336043 0.000109346 -0.00188947)
(-0.301085 9.14805e-05 -0.00236086)
(-0.322468 0.000148112 -0.0039059)
(-0.31633 0.000114587 -0.00357755)
(-0.337512 0.000108905 -0.00184698)
(-0.327156 0.000122451 -0.00228585)
(-0.31439 0.000183272 -0.00405136)
(-0.349774 -0.0504059 -6.7932e-06)
(-0.41299 -0.0595375 0.00293181)
(-0.424066 -0.0612079 2.476e-06)
(-0.372231 -0.0537264 -1.8114e-06)
(-0.367144 -0.0530375 1.82491e-05)
(-0.367092 -0.0529698 6.1024e-06)
(-0.367059 -0.0529832 5.21837e-06)
(-0.38175 -0.0467582 -0.0273327)
(-0.435242 -0.0628207 -3.75481e-07)
(-0.441023 -0.0636554 3.495e-05)
(-0.339647 -0.0490574 -7.1157e-06)
(-0.439439 -0.0634271 1.90094e-05)
(-0.407597 -0.0389531 0.0384057)
(-0.34128 -0.0492651 6.53981e-06)
(-0.34125 -0.0492482 6.66779e-06)
(-0.347893 -0.0502157 4.81952e-06)
(-0.261037 0 2.68581e-17)
(-0.26634 0 1.73821e-17)
(-0.272267 0 -6.50443e-18)
(-0.268421 0 -6.81406e-18)
(-0.279843 0 1.35436e-17)
(-0.272705 0 -1.77636e-17)
(-0.283721 0 1.77068e-18)
(-0.282916 0 -1.33681e-17)
(-0.283059 0 1.54507e-17)
(-0.275018 0 2.1562e-17)
(-0.277161 0 1.35642e-17)
(-0.262588 0 -2.32226e-17)
(-0.272361 0 1.35252e-17)
(-0.276281 0 -1.36838e-17)
(-0.279011 0 -1.36085e-17)
(-0.282235 0 8.16071e-18)
(-0.283032 0 1.20997e-17)
(-0.282684 0 -9.58755e-18)
(-0.272811 0 -2.21838e-18)
(-0.27707 0 -2.71111e-17)
(-0.279476 0 2.68894e-17)
(-0.346709 0 -5.61534e-18)
(-0.325052 -0.00204324 -0.0049746)
(-0.31526 -0.0051325 -0.0129917)
(-0.519783 -0.0612784 0.0420954)
(-0.342986 0 1.38543e-17)
(-0.325695 -0.000724249 -0.00176281)
(-0.321017 0.00201175 0.00490008)
(-0.368785 -0.0317452 -0.041857)
(-0.430739 -0.0502063 -0.0358803)
(-0.268743 -0.011563 3.02691e-18)
(-0.279438 -0.0119766 2.37782e-06)
(-0.492124 -0.0160452 -9.3148e-05)
(-0.43976 -0.0548327 -0.0259563)
(-0.409364 0 0)
(-0.344401 0 6.74028e-19)
(-0.343099 -0.00222752 -0.0260339)
(-0.464797 -0.014139 -0.0334118)
(-0.341178 -0.000527824 -0.0206418)
(-0.328742 -0.00544316 -0.0343874)
(-0.45503 -0.0605329 -5.4256e-05)
(-0.457958 -0.0609226 4.61089e-05)
(-0.373497 0.00365022 0.00181581)
(-0.439668 0.0142746 -4.13158e-05)
(-0.36558 0.0118825 -5.72845e-05)
(-0.420703 0.0136067 -2.43218e-05)
(-0.413309 0.0117366 -0.0237136)
(-0.446605 0.0409345 -5.58959e-05)
(-0.454908 0.0131057 0.0415278)
(-0.455275 0.0417609 2.50972e-06)
(-0.484436 0.0139229 0.0442362)
(-0.575956 -0.0186853 -7.4182e-05)
(-0.417489 0 0)
(-0.344469 0 -7.30422e-18)
(-0.344359 0 1.60372e-17)
(-0.341266 0.00484948 -0.0346922)
(-0.415672 0.0340271 -0.0275831)
(-0.339953 0.000312368 -0.0128976)
(-0.606253 0.0198211 -0.0394875)
(-0.441125 0.0404735 1.26682e-05)
(-0.532755 -0.0175122 -0.0370419)
(-0.340369 -0.00035716 -0.014729)
(-0.339898 0.00016692 -0.00704559)
(-0.42471 -0.038226 -4.298e-19)
(-0.46134 -0.0613742 8.28367e-06)
(-0.362722 -0.0333981 -1.52956e-17)
(-0.46016 -0.0612244 -5.12145e-05)
(-0.521035 -0.016888 -2.80082e-05)
(-0.356797 0 -6.8587e-18)
(-0.355628 0 1.67213e-17)
(-0.352341 0 1.64137e-17)
(-0.424532 0 6.23617e-18)
(-0.343245 0 -1.58876e-17)
(-0.3466 0 -1.60684e-17)
(-0.345906 0 0)
(-0.42328 0 -2.17596e-18)
(-0.357625 0 -3.62996e-18)
(-0.346046 0 -1.60255e-17)
(-0.383023 0 -8.7927e-18)
(-0.347686 0 3.76382e-17)
(-0.265623 0 3.09103e-17)
(-0.466049 -0.0567062 0.0338247)
(-0.260841 0.000115003 -0.00259132)
(-0.394189 -0.0459126 -0.0329146)
(-0.490235 -0.068019 2.23633e-05)
(-0.408077 -0.03334 -0.0470482)
(-0.452464 -0.027475 -0.0537985)
(-0.475459 -0.0546999 -0.0407613)
(-0.356284 0.000131998 0.00716262)
(-0.346044 -0.000125277 0.0113014)
(-0.382037 0.000171605 0.0047279)
(-0.347687 0.0001492 0.00516236)
(-0.419684 0.000181901 0.00565022)
(-0.328549 -0.00134149 0.0165043)
(-0.336806 0.000151515 0.00417686)
(-0.336426 0.0390307 -0.102931)
(-0.393715 0.02701 0.00618507)
(-0.341875 0.00015999 0.0044025)
(-0.338239 0.000152258 0.00440852)
(-0.336021 0.000131368 0.00563008)
(-0.342858 0.000155892 0.00501974)
(-0.339435 0.000153042 0.00421931)
(-0.267816 0.000118027 -0.00251735)
(-0.264721 0.000121384 -0.00268236)
(-0.262757 0.000122965 -0.00317446)
(-0.362812 -0.0160246 -0.042049)
(-0.343047 -0.00133842 -0.00861607)
(-0.409292 0.000191511 0.00503859)
(-0.344031 0.000158248 0.00373763)
(-0.329595 -0.0028881 -0.0136297)
(-0.342141 0.000160266 0.00421405)
(-0.342348 0.000158798 0.00376786)
(-0.343237 0.000161318 0.00442736)
(-0.343754 0.000161047 0.00423425)
(-0.46678 -0.0568428 0.0338228)
(-0.437854 -0.0351473 0.0425247)
(-0.423332 -0.0515281 0.030698)
(-0.443651 -0.0498978 0.0365146)
(-0.360661 0.000102933 0.00163633)
(-0.369769 -0.00363932 -0.0161467)
(-0.439544 -0.063442 -1.86935e-05)
(-0.432662 -0.0615863 -0.0102426)
(-0.27126 0.000121644 -0.00263826)
(-0.273168 0.00012453 -0.00304369)
(-0.284955 0.000127327 -0.00270493)
(-0.326958 -0.0471916 1.83949e-17)
(-0.435845 -0.0629081 -4.54274e-06)
(-0.340906 -0.00547885 -0.0185793)
(-0.353266 -0.00334888 -0.011942)
(-0.348857 -0.0086317 -0.0240459)
(-0.382126 -0.0551548 -3.01003e-05)
(-0.470657 -0.0090444 0.0284093)
(-0.380722 0.0074716 -0.00768754)
(-0.423365 -0.0611068 -3.57742e-05)
(-0.378367 -0.0460447 0.0274318)
(-0.368761 0 1.44664e-18)
(-0.346364 0 8.06747e-18)
(-0.377826 0 1.4672e-17)
(-0.353815 0 -3.9181e-19)
(-0.539465 0.043642 -0.0472735)
(-0.499301 -0.0143479 -0.0455964)
(-0.341055 0.00386134 0.0264158)
(-0.360819 0 -2.43849e-17)
(-0.346404 0 -1.7972e-17)
(-0.348273 0 2.44015e-17)
(-0.340215 0.000767508 0.0109618)
(-0.488844 -0.040597 0.0310045)
(-0.518057 -0.0442527 0.000238334)
(-0.368584 -0.0529602 -0.00269851)
(-0.384111 -0.0554411 5.20537e-05)
(-0.415444 -0.0599229 -0.00221009)
(-0.432561 -0.0624339 -1.11057e-05)
(-0.42684 -0.0616082 4.75445e-05)
(-0.478458 -0.0593165 -0.0332512)
(-0.265546 -4.58722e-05 -0.00286962)
(-0.350014 0.000145862 0.00180409)
(-0.404646 0.000974329 0.0121882)
(-0.350531 9.45819e-05 0.00153712)
(-0.34191 0.000201879 0.00629245)
(-0.349688 2.48466e-05 0.000335839)
(-0.337245 -0.00239687 -0.0123437)
(-0.467043 -0.0115664 -0.0314497)
(-0.460856 -0.0121923 0.0266003)
(-0.428634 0.00229998 -0.0377954)
(-0.406149 -0.000136489 0.0367842)
(-0.402212 -0.00551336 0.0341365)
(-0.436286 -4.26328e-05 -0.0398669)
(-0.412595 5.89428e-05 0.0372562)
(-0.368906 -0.039368 0.0224808)
(-0.464498 -0.0526703 -0.0273466)
(-0.366288 -0.0356938 0.0259924)
(-0.437325 -0.0429172 0.0313003)
(-0.468939 -0.0516216 0.0291457)
(-0.455515 -0.0444792 0.0427944)
(-0.520504 -0.0512853 -0.0486321)
(-0.317557 -0.000480974 -0.0192912)
(-0.336541 0 3.13102e-17)
(-0.323411 -0.000462816 -0.00983566)
(-0.318803 0.000612641 -0.0114361)
(-0.339817 0 0)
(-0.329658 -6.44234e-05 -0.00274109)
(-0.460402 0.0433562 -0.0333325)
(-0.475654 0.0412111 -0.105938)
(-0.436768 -0.0193902 0.0539459)
(-0.460333 3.92922e-05 0.0558905)
(-0.334254 0 -1.57876e-17)
(-0.338083 0 0)
(-0.445899 0.0247477 -0.0542041)
(-0.466792 -2.04725e-06 -0.0566865)
(-0.408426 -0.0392567 -0.03839)
(-0.469136 -0.0207586 -0.0457251)
(-0.460555 -0.0119369 -0.0335607)
(-0.239536 0 0.106717)
(-0.323044 -0.00762953 0.0312313)
(-0.352078 -0.0026626 0.0235771)
(-0.36475 -0.0282858 0.0443926)
(-0.299974 0.000128357 0.00272135)
(-0.329941 -0.00769665 -0.0318341)
(-0.400397 -0.0469006 -0.0329811)
(-0.362826 -0.0269395 -0.044848)
(-0.51194 -0.059951 -0.0421905)
(-0.46039 -0.026282 -0.0544615)
(-0.45291 -0.0253545 -0.0535223)
(-0.497664 -0.0582533 -0.0410353)
(-0.317242 -0.00699008 0.0205884)
(-0.330267 -0.00657512 0.0203263)
(-0.385759 -0.0276346 0.0327347)
(-0.3184 -0.00753156 0.0213389)
(-0.468011 -0.0225937 0.046416)
(-0.319602 -0.007402 -0.0225326)
(-0.342193 -0.000782639 -0.00931246)
(-0.326948 -0.00765701 -0.0264693)
(-0.345131 -2.57562e-05 -0.00172091)
(-0.467705 0.0173812 0.0410084)
(-0.326769 0.00756705 0.0230233)
(-0.321597 0.00745842 0.0226649)
(-0.317004 -0.00619369 0.0192828)
(-0.330263 -0.00601034 0.0182883)
(-0.378323 -0.050001 -0.018396)
(-0.397867 -0.0463743 0.0315272)
(-0.418637 -0.0599875 -4.31781e-06)
(-0.408202 -0.0225918 0.051878)
(-0.452722 -0.0278054 0.0539218)
(-0.322358 -0.00610998 0.0290413)
(-0.445402 -0.0483564 -0.0384453)
(-0.443143 -0.0490993 -0.0371069)
(-0.33039 -0.00647396 -0.0201975)
(-0.467839 -0.0572996 -0.0335071)
(-0.523405 -0.0659589 -0.0342328)
(-0.33877 0.000116863 -0.00656091)
(-0.325928 0.000141738 -0.00523801)
(-0.325621 -4.12549e-06 -0.00832298)
(-0.393298 0.000126651 0.00748798)
(-0.375135 -0.00726597 0.0340451)
(-0.297224 9.15453e-05 -0.00276884)
(-0.314749 0.000141452 -0.00479141)
(-0.285188 0.000134554 -0.00345059)
(-0.44717 -0.0620403 -3.26994e-05)
(-0.470051 -0.0186941 0.0491671)
(-0.275792 0 0)
(-0.271898 0 -1.42748e-17)
(-0.34037 0.00182069 -0.0211837)
(-0.34225 0 0)
(-0.357544 0 3.39676e-17)
(-0.423804 0 -9.95366e-18)
(-0.346652 0 -1.61003e-17)
(-0.420891 0 9.85762e-18)
(-0.351474 0 2.2501e-18)
(-0.352015 0 0)
(-0.337614 -0.00586287 0.0282259)
(-0.297587 -0.00625915 -0.0446736)
(-0.486225 -0.0569669 0.0400233)
(-0.306372 0.000119597 0.00402351)
(-0.443878 -0.0616418 0.0055573)