/*--------------------------------*- C++ -*----------------------------------*\
  =========                 |
  \\      /  F ield         | OpenFOAM: The Open Source CFD Toolbox
   \\    /   O peration     | Website:  https://openfoam.org
    \\  /    A nd           | Version:  10
     \\/     M anipulation  |
\*---------------------------------------------------------------------------*/
FoamFile
{
    format      ascii;
    class       volScalarField;
    location    "0.05";
    object      k;
}
// * * * * * * * * * * * * * * * * * * * * * * * * * * * * * * * * * * * * * //

dimensions      [0 2 -2 0 0 0 0];

internalField   nonuniform List<scalar> 
115408
(
0.0973499
0.0975697
0.0974931
0.0975154
0.0975027
0.0977156
0.0975324
0.0974225
0.0975961
0.0974702
0.0973395
0.0975027
0.0975757
0.0976793
0.0975474
0.09746
0.0975259
0.0976809
0.0976458
0.0973467
0.0973553
0.0973469
0.097621
0.0974483
0.0973795
0.0973428
0.0973496
0.0974878
0.0975301
0.0976216
0.097343
0.0973416
0.0976481
0.0976022
0.097569
0.0976872
0.0988445
0.10194
0.100888
0.100982
0.0981977
0.09767
0.0982907
0.101631
0.105327
0.101807
0.097981
0.0979695
0.0977146
0.0977666
0.0980963
0.097953
0.0975773
0.097998
0.0981353
0.0982109
0.0977731
0.0984948
0.102428
0.100521
0.100334
0.101864
0.102662
0.0985916
0.0978386
0.101362
0.101137
0.0981897
0.0980368
0.0976948
0.102396
0.100853
0.0982119
0.101226
0.100073
0.0982352
0.0975023
0.0974947
0.100165
0.100787
0.101222
0.0987818
0.0978944
0.0975297
0.104359
0.0982967
0.102303
0.101486
0.101712
0.102453
0.0977623
0.0976484
0.0977693
0.0979723
0.0995281
0.0981794
0.0995626
0.105256
0.100286
0.0981237
0.0991877
0.100668
0.0981758
0.0984778
0.100703
0.0994424
0.0987477
0.0988584
0.100441
0.0987578
0.097667
0.0990838
0.100811
0.0983188
0.0979624
0.0990466
0.0983546
0.0980372
0.0987483
0.0997194
0.0984621
0.09763
0.099382
0.101039
0.0986315
0.100173
0.0990813
0.101509
0.0990864
0.0985373
0.100644
0.0985119
0.0976706
0.0989197
0.100945
0.0998139
0.100379
0.0983205
0.0995208
0.104031
0.098967
0.102312
0.0997028
0.099907
0.0998155
0.0982521
0.0986062
0.0975899
0.0975762
0.0990617
0.100246
0.0983883
0.100432
0.0979847
0.097702
0.098813
0.0990929
0.0998605
0.100943
0.100788
0.100076
0.100047
0.0985339
0.0984109
0.100889
0.102352
0.100922
0.109463
0.101866
0.0995113
0.098256
0.0983043
0.101119
0.0992895
0.099118
0.101368
0.100978
0.101587
0.101199
0.100951
0.10104
0.0983299
0.097638
0.0983309
0.101308
0.0992254
0.0988413
0.102447
0.10182
0.10146
0.101853
0.100827
0.0988365
0.0980724
0.0974168
0.0983384
0.10142
0.0990715
0.0987548
0.101405
0.100269
0.100568
0.10155
0.100584
0.0990662
0.0982889
0.0975126
0.0984145
0.10106
0.099258
0.0987097
0.101478
0.0996247
0.101995
0.100734
0.107414
0.10736
0.0984927
0.10158
0.0996643
0.0994463
0.099288
0.100949
0.100833
0.110135
0.1032
0.105174
0.101341
0.101852
0.101187
0.103668
0.102532
0.104432
0.103047
0.0991565
0.101091
0.100045
0.063403
0.0996994
0.0987513
0.098259
0.0976934
0.0977658
0.0996768
0.099123
0.102388
0.0880881
0.0927009
0.098335
0.0985592
0.097723
0.097392
0.0978237
0.0997782
0.0991482
0.102491
0.100081
0.0633098
0.0621547
0.0954977
0.0985156
0.0981836
0.097707
0.0973644
0.097789
0.0997753
0.0991272
0.102323
0.0947676
0.0586823
0.0507759
0.0940033
0.098265
0.0982994
0.0976897
0.0974232
0.0978623
0.099907
0.0990619
0.102468
0.0816179
0.0728943
0.0987692
0.098859
0.100258
0.100242
0.0949898
0.0613727
0.099748
0.0981737
0.0723793
0.0960563
0.0976864
0.0989116
0.10488
0.101353
0.096394
0.0962569
0.0977543
0.0980148
0.0978213
0.0975689
0.0986713
0.0993794
0.0957533
0.0969697
0.0979441
0.097421
0.0974476
0.0975116
0.0985181
0.099348
0.0957958
0.096567
0.097845
0.0974089
0.0973601
0.0975135
0.0985224
0.099349
0.0959206
0.0970939
0.0979328
0.0974397
0.0974512
0.0975591
0.0985968
0.0993537
0.0959455
0.0968168
0.09798
0.0994801
0.100285
0.0960435
0.100377
0.0911562
0.0990203
0.101673
0.097949
0.0991635
0.099456
0.0995299
0.0961595
0.099043
0.0979365
0.0975523
0.0976787
0.0988482
0.0983873
0.0960548
0.0945418
0.0989392
0.0977967
0.0973806
0.0976826
0.0988017
0.0982232
0.0967083
0.0950044
0.0989088
0.0978034
0.0973755
0.0977532
0.0987789
0.098332
0.0958298
0.0950366
0.0989254
0.0977926
0.0973839
0.0977984
0.0989008
0.0991685
0.0968672
0.0971596
0.0988231
0.0989277
0.0994741
0.100016
0.101691
0.103189
0.0950017
0.0810284
0.10439
0.105433
0.102852
0.106403
0.0983438
0.0983408
0.0999817
0.0990172
0.10031
0.106035
0.101334
0.10063
0.0997821
0.112716
0.107049
0.0981227
0.0981641
0.101733
0.101418
0.100217
0.10025
0.100942
0.103668
0.0993884
0.109896
0.106396
0.0980834
0.0981453
0.101818
0.100261
0.100196
0.103306
0.0994915
0.100308
0.0996077
0.107621
0.106028
0.098063
0.0981741
0.101792
0.10136
0.099486
0.100378
0.103179
0.101885
0.0987142
0.109706
0.106476
0.0980503
0.0982244
0.0998605
0.0987507
0.099207
0.0982062
0.101182
0.100466
0.105406
0.110108
0.106676
0.0981071
0.0985822
0.099494
0.0986975
0.0997365
0.101476
0.106128
0.102163
0.100399
0.104558
0.10069
0.101452
0.101379
0.106011
0.104829
0.099121
0.098328
0.0982936
0.0981999
0.10203
0.100276
0.098102
0.0975932
0.0999033
0.101286
0.0995554
0.0981519
0.098069
0.0980303
0.0983852
0.101085
0.0994593
0.097954
0.0975191
0.0994047
0.0997543
0.0990662
0.0980373
0.0979875
0.0980196
0.0981215
0.100559
0.0993075
0.0979426
0.0974928
0.0992646
0.0995118
0.0989628
0.0980144
0.0979785
0.0979915
0.0980973
0.100546
0.0992793
0.0979292
0.097518
0.0992941
0.0996566
0.0990356
0.0980129
0.0980101
0.0979862
0.0981564
0.100488
0.0994151
0.0979507
0.0976033
0.0998143
0.100713
0.0993921
0.0980925
0.0980515
0.0980353
0.0989894
0.101623
0.10006
0.0980256
0.0979712
0.100507
0.102657
0.098708
0.0990426
0.0983355
0.0988234
0.101758
0.100513
0.0988336
0.0980257
0.0979151
0.09735
0.0973419
0.0973441
0.0973479
0.0974543
0.0975336
0.0974197
0.0975144
0.0974582
0.0973547
0.0973446
0.0973364
0.0973401
0.0973457
0.0974339
0.0974697
0.0974239
0.0974482
0.0974337
0.0973448
0.0973416
0.0973351
0.0973376
0.0973509
0.0974409
0.0974618
0.0974158
0.0974493
0.0974338
0.0973432
0.0973413
0.0973352
0.0973373
0.0973497
0.0974422
0.0974616
0.0974309
0.0974609
0.0974342
0.0973453
0.0973419
0.0973358
0.0973396
0.0973449
0.0974348
0.0974675
0.0974121
0.0975121
0.0974575
0.0973523
0.0973457
0.0973396
0.0973407
0.0973457
0.0974601
0.0975226
0.0974801
0.0977273
0.0976772
0.0973467
0.0973442
0.0973408
0.0973375
0.0974181
0.0973614
0.0973566
0.0711141
0.0774675
0.0950034
0.10151
0.100829
0.101537
0.0683153
0.102226
0.101088
0.103251
0.0667067
0.0621082
0.100332
0.100154
0.101883
0.0764937
0.0640488
0.0880463
0.104996
0.101327
0.0994835
0.0831483
0.0950793
0.0972545
0.102401
0.101894
0.101823
0.101585
0.102278
0.066821
0.103037
0.0844934
0.10308
0.10137
0.102035
0.0678896
0.0623194
0.087545
0.0849689
0.101779
0.10115
0.101854
0.0625384
0.0964293
0.0864532
0.100592
0.100077
0.101629
0.0998416
0.100053
0.102268
0.100854
0.102058
0.102103
0.10236
0.102119
0.10317
0.0855938
0.100947
0.0812522
0.102328
0.101852
0.102322
0.0886184
0.085199
0.0823467
0.0708219
0.102222
0.10136
0.102481
0.0866578
0.101198
0.0744105
0.0993875
0.0998266
0.102028
0.0999841
0.101006
0.10199
0.100547
0.102077
0.101121
0.102263
0.102949
0.0997305
0.0794806
0.0962047
0.0448257
0.101301
0.101338
0.100477
0.0791309
0.0692062
0.102007
0.10117
0.104149
0.0735672
0.0963719
0.0847326
0.099665
0.102291
0.0998094
0.0999738
0.102112
0.0860439
0.102203
0.103652
0.100119
0.0999012
0.0963111
0.0761145
0.099724
0.10102
0.100712
0.103214
0.100947
0.0997349
0.0850219
0.056718
0.104916
0.103896
0.105569
0.0866066
0.102319
0.0620638
0.102575
0.0995615
0.0993354
0.1002
0.0694075
0.0817104
0.100628
0.101306
0.100644
0.098344
0.100883
0.099756
0.0503034
0.0638033
0.111857
0.0597803
0.0720638
0.102796
0.10394
0.103538
0.101728
0.0885197
0.0974805
0.100403
0.101786
0.101187
0.102792
0.089962
0.0974727
0.0988627
0.100807
0.10292
0.103437
0.0996585
0.0976294
0.100281
0.104494
0.1007
0.0698928
0.0994334
0.104628
0.107772
0.0977135
0.0940272
0.0998308
0.0496937
0.0610048
0.0917261
0.11088
0.0977339
0.0960903
0.102338
0.0840947
0.0970962
0.0897368
0.0569625
0.0839165
0.0952044
0.0909611
0.0897215
0.109975
0.103905
0.0987092
0.0986113
0.0989342
0.0954601
0.0997831
0.0944487
0.0994393
0.0823224
0.102529
0.0930909
0.097255
0.0972847
0.0998967
0.0638336
0.0626676
0.0602746
0.0852021
0.062063
0.0876515
0.089715
0.095109
0.0898335
0.103345
0.105269
0.0985088
0.0985315
0.0985651
0.0944723
0.0992514
0.0956631
0.0991492
0.0932319
0.102453
0.0923914
0.0972168
0.0973748
0.0649162
0.0971715
0.0614364
0.0603778
0.0601584
0.0475083
0.08791
0.0542872
0.0859987
0.0898143
0.0950085
0.0898127
0.104949
0.100373
0.0985254
0.0984577
0.0985521
0.095672
0.0990541
0.0945859
0.0989768
0.0898276
0.102364
0.0809162
0.0974548
0.0963564
0.0606442
0.0815699
0.0834066
0.0691757
0.089583
0.0751361
0.0904088
0.102744
0.110796
0.0984179
0.0986034
0.0984551
0.0946943
0.0991892
0.0950241
0.0990732
0.0822195
0.0946281
0.0646635
0.0962294
0.0967758
0.0654901
0.0673901
0.0905981
0.0968932
0.111061
0.0988057
0.0980724
0.100609
0.0951316
0.0991842
0.0621202
0.102785
0.0739179
0.0973134
0.0982499
0.0673814
0.0565347
0.0993196
0.0959179
0.0999594
0.0928566
0.0772265
0.0950129
0.0947101
0.0934438
0.0943402
0.101873
0.100717
0.101907
0.100525
0.0966388
0.094936
0.0908945
0.0924887
0.0968176
0.10246
0.100405
0.0659456
0.0961315
0.10205
0.0971408
0.100276
0.1016
0.0620276
0.0535948
0.102559
0.102393
0.101832
0.0956024
0.100926
0.0983029
0.112075
0.104588
0.0964379
0.096358
0.102025
0.0996191
0.101983
0.0992069
0.101166
0.0991916
0.101593
0.0956188
0.0983378
0.0956383
0.112072
0.112663
0.0989085
0.111493
0.0984409
0.0970242
0.0981522
0.0957124
0.0982688
0.0968949
0.0982144
0.101998
0.0994178
0.101947
0.0990557
0.101772
0.0991631
0.101933
0.0958215
0.0953052
0.0959373
0.112177
0.112932
0.111141
0.112721
0.0982227
0.0965943
0.0981021
0.0971259
0.0982562
0.0971678
0.0981745
0.101964
0.0993937
0.101962
0.0991069
0.101929
0.0991155
0.101861
0.0958995
0.095676
0.0950207
0.112775
0.111458
0.112703
0.112401
0.0981037
0.0969572
0.0981172
0.0971058
0.0981929
0.0971543
0.0981648
0.101989
0.0994727
0.102053
0.0989937
0.101871
0.0989487
0.101355
0.0957301
0.0951287
0.0973981
0.112051
0.113721
0.112039
0.0853831
0.0981555
0.0968633
0.0981727
0.0972829
0.0981816
0.0956654
0.0979812
0.101969
0.099173
0.101499
0.0986795
0.101339
0.0983419
0.0999902
0.0962203
0.0977502
0.0966278
0.114122
0.0843956
0.0981427
0.0988847
0.0979842
0.100978
0.101269
0.0982333
0.0983256
0.0993846
0.100134
0.0990934
0.099159
0.0975746
0.0986277
0.0941113
0.0800806
0.0939257
0.0943098
0.0880446
0.10026
0.0587915
0.0972267
0.100633
0.0924438
0.0543034
0.103132
0.103211
0.102153
0.102234
0.052539
0.0529106
0.111102
0.102648
0.0997265
0.0998181
0.0997234
0.101463
0.100148
0.10302
0.101049
0.103278
0.0952794
0.0927484
0.0986974
0.0996582
0.0963163
0.0980802
0.0973652
0.0984426
0.0977229
0.101264
0.0996714
0.102538
0.0863929
0.103599
0.0995265
0.0934085
0.088106
0.100964
0.0985813
0.0952645
0.102265
0.0937658
0.10013
0.102772
0.102073
0.101641
0.101567
0.0970666
0.0990828
0.0973715
0.104569
0.0977984
0.102502
0.0864766
0.105077
0.0815316
0.0917638
0.0875567
0.0858449
0.0918417
0.095792
0.0985501
0.0960321
0.0923645
0.0961552
0.103116
0.100333
0.101626
0.0986341
0.103454
0.0956933
0.104595
0.0973115
0.103888
0.0980922
0.105119
0.0819081
0.10176
0.0859559
0.0866436
0.0917893
0.087521
0.0924561
0.0958621
0.0920929
0.0938065
0.0977179
0.103376
0.101416
0.0985502
0.0920932
0.0990325
0.101783
0.0965972
0.099647
0.0976103
0.0976551
0.0959554
0.101876
0.0870412
0.094357
0.0998288
0.0923961
0.0892459
0.101965
0.101914
0.0939394
0.0992617
0.101588
0.102706
0.0999748
0.0899503
0.0993795
0.101642
0.102158
0.102146
0.0985871
0.0975612
0.0962821
0.0991091
0.0991701
0.0949624
0.100908
0.101288
0.0988227
0.103205
0.0995406
0.0976178
0.0966983
0.100311
0.103427
0.0970929
0.102157
0.0874978
0.103571
0.102027
0.103953
0.0951045
0.0993048
0.0994157
0.101434
0.101617
0.101441
0.0980728
0.106058
0.0961468
0.100591
0.0958221
0.104265
0.0960091
0.0990274
0.100995
0.104004
0.10381
0.101903
0.0675371
0.100648
0.100091
0.100854
0.10129
0.0667057
0.069256
0.102218
0.100847
0.10182
0.100837
0.101671
0.103911
0.101913
0.104184
0.108873
0.102819
0.105343
0.101236
0.102705
0.105021
0.106469
0.10369
0.105186
0.100644
0.0941291
0.105266
0.100311
0.103296
0.105389
0.101712
0.0983701
0.100097
0.103853
0.104571
0.103659
0.10452
0.102111
0.102406
0.0994941
0.103068
0.104554
0.102568
0.103911
0.0955423
0.103395
0.103894
0.102789
0.106121
0.10266
0.104237
0.100708
0.103256
0.0991769
0.103462
0.104048
0.103447
0.104122
0.0999979
0.0998614
0.0997144
0.10262
0.103582
0.10232
0.103056
0.103157
0.100365
0.102577
0.102354
0.104223
0.102185
0.104111
0.0988267
0.101367
0.100847
0.103336
0.104026
0.103346
0.103815
0.0996677
0.101524
0.0990368
0.102267
0.103075
0.102528
0.103559
0.102529
0.100411
0.103634
0.102098
0.104086
0.102194
0.104154
0.100221
0.0985149
0.102058
0.103444
0.104021
0.103213
0.104063
0.100327
0.101644
0.102771
0.10243
0.103712
0.102815
0.104147
0.103102
0.100446
0.104765
0.102206
0.104015
0.10255
0.105669
0.101463
0.100937
0.0989894
0.101895
0.104246
0.101429
0.105327
0.101943
0.0984901
0.0946021
0.103014
0.104358
0.10399
0.105169
0.102445
0.0977493
0.101719
0.102744
0.104992
0.104083
0.0998515
0.0989115
0.103033
0.0978976
0.0966297
0.102693
0.0989942
0.102998
0.0978478
0.0964677
0.0977853
0.0964185
0.103384
0.0989733
0.103771
0.0977771
0.0966436
0.0977855
0.0965622
0.102868
0.0991382
0.104507
0.0977838
0.0951587
0.0979307
0.0945208
0.101563
0.0989827
0.102152
0.0985544
0.0945005
0.103364
0.0780165
0.101754
0.099636
0.102234
0.103463
0.0754438
0.103138
0.0796913
0.101764
0.098998
0.10061
0.0986104
0.100346
0.0822447
0.0641156
0.0853589
0.0742586
0.0889901
0.10057
0.0991357
0.100617
0.098392
0.0999622
0.0983371
0.0996923
0.0744859
0.0950174
0.0797988
0.0614995
0.0574876
0.0592378
0.0674889
0.100319
0.0949924
0.0998402
0.100603
0.0991594
0.100598
0.0983251
0.0996919
0.0983378
0.0997682
0.0761631
0.0996911
0.0788641
0.0608262
0.0623382
0.0604764
0.0711225
0.0618241
0.0702648
0.100359
0.0950787
0.100297
0.100544
0.099141
0.100662
0.0983647
0.0998961
0.0984662
0.100647
0.0801518
0.0909952
0.060509
0.0618732
0.053703
0.100114
0.0915384
0.0883991
0.100783
0.0993454
0.100224
0.09851
0.100795
0.0984383
0.100621
0.0556124
0.0701874
0.0835288
0.061415
0.08496
0.100016
0.100388
0.100207
0.0995948
0.0996998
0.100613
0.0970865
0.0679458
0.0940773
0.0973957
0.100779
0.0937315
0.071898
0.0981912
0.0583327
0.083529
0.105993
0.0840088
0.0780553
0.0842406
0.0878337
0.0987392
0.102401
0.101554
0.0958201
0.0969173
0.0962957
0.101658
0.100796
0.0972624
0.101638
0.101136
0.101269
0.10792
0.0959088
0.0962139
0.0961818
0.10139
0.100035
0.0970385
0.101498
0.100569
0.100865
0.108004
0.0958189
0.0962362
0.0962021
0.101249
0.0995164
0.0972676
0.101468
0.100398
0.100555
0.108088
0.0956154
0.0962533
0.096195
0.101517
0.0998918
0.0974502
0.101517
0.100815
0.100817
0.108077
0.0961746
0.0964462
0.0966885
0.102046
0.100594
0.0984278
0.101436
0.101561
0.101441
0.107878
0.0599372
0.0953638
0.0959185
0.0609967
0.0955511
0.0943433
0.100964
0.100296
0.0935851
0.0753421
0.0899606
0.0976456
0.0724332
0.0942366
0.0883448
0.0815964
0.0907405
0.0663024
0.0693244
0.0864527
0.087437
0.101638
0.0977463
0.102962
0.0997659
0.0988492
0.0936965
0.0995709
0.102612
0.0997107
0.0985794
0.104968
0.105797
0.0989317
0.0988635
0.0845737
0.0966506
0.100565
0.10234
0.0991598
0.100145
0.0995632
0.100043
0.0995511
0.10108
0.099965
0.104138
0.091856
0.0662355
0.0967456
0.0951851
0.0601898
0.0933872
0.0945605
0.0591456
0.07075
0.0763741
0.0994893
0.0952779
0.0993944
0.101216
0.0990438
0.101291
0.0982838
0.0996536
0.0983921
0.0996298
0.100354
0.109088
0.0995873
0.100087
0.0837888
0.0536281
0.0957703
0.0992193
0.0519447
0.0795316
0.0987469
0.0534338
0.059352
0.0994443
0.0949724
0.0990691
0.1017
0.0982944
0.102962
0.0989275
0.0995857
0.0983546
0.0996037
0.0993958
0.0999723
0.0995559
0.100181
0.0835573
0.0563126
0.0965582
0.0988965
0.051627
0.082714
0.0984886
0.0500274
0.0401196
0.0991465
0.0949334
0.0990489
0.101662
0.0986409
0.102504
0.0989511
0.0997317
0.0992408
0.100083
0.100297
0.10072
0.0999684
0.101171
0.089104
0.0523253
0.0958147
0.0990075
0.057124
0.0838527
0.0979715
0.0617858
0.0599933
0.0992835
0.0996018
0.0990667
0.101535
0.0984955
0.10238
0.098458
0.100038
0.0993159
0.0997811
0.099494
0.10065
0.0994529
0.102026
0.0935902
0.0612844
0.0994833
0.0943424
0.0668837
0.0925657
0.0947743
0.06087
0.084556
0.0774409
0.0993441
0.100965
0.0980872
0.0684521
0.0742377
0.0892456
0.0438324
0.0675774
0.0480425
0.0761559
0.101863
0.0944241
0.100697
0.101368
0.101332
0.105863
0.0976247
0.0579039
0.102225
0.0842575
0.0992266
0.096842
0.0888933
0.0900258
0.101853
0.093833
0.104861
0.0784386
0.101017
0.101907
0.101572
0.101763
0.100816
0.105329
0.0887002
0.104272
0.103468
0.101283
0.101225
0.103066
0.105261
0.101947
0.100266
0.101733
0.0994314
0.109647
0.10292
0.100691
0.101541
0.103925
0.10254
0.106973
0.102144
0.106325
0.101471
0.0989511
0.0979984
0.104651
0.103197
0.102569
0.101645
0.103167
0.100079
0.102144
0.101604
0.104837
0.101532
0.104426
0.0974839
0.0973988
0.102305
0.104397
0.0976178
0.0919485
0.102073
0.0986447
0.10166
0.100777
0.104275
0.0994113
0.100482
0.105213
0.0980672
0.0996099
0.0985265
0.102606
0.101498
0.102627
0.100611
0.101794
0.100242
0.104303
0.101503
0.10422
0.101501
0.104376
0.0973076
0.0977484
0.10026
0.101519
0.0978296
0.0973797
0.101607
0.0946635
0.0982341
0.100189
0.10639
0.0982609
0.0946602
0.106392
0.0989661
0.0996739
0.0981769
0.102568
0.10049
0.102553
0.101473
0.104275
0.100098
0.10248
0.101582
0.10466
0.102042
0.106572
0.0991548
0.0974552
0.10356
0.103222
0.0986226
0.0986739
0.10206
0.0989672
0.0987933
0.103172
0.102959
0.100612
0.0973845
0.101851
0.0980131
0.104454
0.101038
0.102379
0.101504
0.104306
0.102978
0.101384
0.100539
0.10306
0.102321
0.11055
0.0998517
0.101597
0.10104
0.102635
0.101306
0.108762
0.102587
0.101861
0.0996501
0.0996522
0.100581
0.102205
0.103883
0.109706
0.0991121
0.0991643
0.102291
0.103032
0.103127
0.105701
0.107169
0.0990622
0.0991688
0.101571
0.102635
0.10831
0.103768
0.0989571
0.0989661
0.101818
0.103708
0.1025
0.0981238
0.0977292
0.0986888
0.0982819
0.102103
0.102208
0.10218
0.0976815
0.0978127
0.09815
0.0984016
0.0979476
0.0983041
0.0948754
0.0986769
0.077615
0.0986544
0.0534323
0.0988588
0.0698307
0.097934
0.0990619
0.0985611
0.0820337
0.0993796
0.0978124
0.0809102
0.0982356
0.100468
0.0598392
0.0793365
0.0985761
0.0980692
0.0789305
0.0969323
0.0470323
0.100476
0.101257
0.0990464
0.101384
0.101941
0.0980966
0.0973305
0.102243
0.0568968
0.0604823
0.101737
0.0970782
0.0985648
0.100738
0.0618874
0.100101
0.0980393
0.0976383
0.103073
0.0938858
0.10059
0.0584654
0.0976683
0.100958
0.0842875
0.0954477
0.101628
0.0636299
0.0968629
0.102275
0.0523468
0.0757287
0.102198
0.0964304
0.0610038
0.0972014
0.0961609
0.0840282
0.0807858
0.101791
0.097408
0.0654681
0.0913801
0.102265
0.0989619
0.0857137
0.0941683
0.103394
0.0985564
0.100891
0.1033
0.090412
0.101508
0.106274
0.100274
0.0957456
0.0923182
0.0999083
0.0827517
0.0993962
0.0977893
0.10283
0.0945835
0.0959991
0.101147
0.0799695
0.0821284
0.0975618
0.102749
0.0954504
0.0990148
0.100651
0.100745
0.0966412
0.100746
0.100326
0.0946907
0.0952794
0.103258
0.0832982
0.0957594
0.102969
0.0951581
0.0949648
0.0968408
0.103888
0.0604692
0.0844259
0.097113
0.104148
0.0678845
0.0978722
0.101935
0.062418
0.0760512
0.097956
0.10243
0.0682954
0.0973075
0.104379
0.0855248
0.0856932
0.104071
0.0974291
0.0657832
0.0980213
0.10272
0.0796264
0.0854105
0.102752
0.0979028
0.0702182
0.0969548
0.104093
0.0757792
0.0821807
0.0971812
0.104164
0.0909795
0.0975047
0.0967953
0.0812644
0.0998138
0.0976398
0.0971119
0.0878744
0.0969465
0.105007
0.0847655
0.0854712
0.104623
0.0968618
0.0913221
0.0973954
0.0974366
0.100148
0.0844786
0.097307
0.0973178
0.0882395
0.0996194
0.100653
0.0957698
0.10319
0.0995895
0.100626
0.0964419
0.0950289
0.10385
0.0950933
0.0845252
0.0949856
0.103717
0.0956617
0.100265
0.101456
0.103307
0.0924665
0.100996
0.0988162
0.0960197
0.0952166
0.103523
0.0844063
0.0908511
0.103593
0.0953244
0.0953996
0.0970429
0.105198
0.0856757
0.0875005
0.0971044
0.105049
0.0855926
0.0974188
0.102852
0.0854224
0.0842704
0.0974412
0.102787
0.085281
0.0970426
0.104805
0.0872566
0.0665556
0.104907
0.0966989
0.0848294
0.0974879
0.102682
0.0838238
0.0642927
0.102722
0.0976404
0.0834705
0.0970263
0.104968
0.0852771
0.0859619
0.0970119
0.104835
0.0895973
0.097392
0.0976881
0.0844876
0.101244
0.0973326
0.097689
0.0868655
0.0969966
0.104305
0.0856082
0.0883231
0.104719
0.097052
0.0927516
0.0973379
0.0975995
0.100479
0.0874902
0.0976036
0.0974333
0.08958
0.0978386
0.102641
0.0903764
0.101137
0.0924071
0.0998432
0.0792996
0.0978482
0.102361
0.0873704
0.066634
0.096323
0.100624
0.0792515
0.0973311
0.100197
0.10004
0.0708894
0.100017
0.0975008
0.0783907
0.0973495
0.0997943
0.0656303
0.0625329
0.100419
0.0978721
0.0796295
0.0971613
0.103793
0.0640063
0.0642152
0.0968545
0.103218
0.0597133
0.0978942
0.101134
0.0629445
0.0607852
0.0978426
0.100915
0.0618104
0.0974265
0.101853
0.0635391
0.101211
0.0964464
0.0581056
0.0985986
0.099853
0.0598515
0.100571
0.0977143
0.0575339
0.0969239
0.102844
0.0863168
0.0605685
0.0970652
0.102921
0.0710639
0.0977154
0.0969173
0.0861542
0.0921319
0.0979029
0.0965591
0.0750953
0.0963193
0.10245
0.0619081
0.0573966
0.102336
0.096953
0.0698095
0.0971133
0.105045
0.0894187
0.0617913
0.10189
0.0971642
0.0732938
0.101449
0.105307
0.0976298
0.0967451
0.106431
0.101762
0.0976108
0.0978068
0.0987477
0.0664344
0.0891627
0.0980474
0.101398
0.0641978
0.0996988
0.0991816
0.0697186
0.0988411
0.0987844
0.0571193
0.0976881
0.102646
0.0800049
0.101724
0.0954113
0.059849
0.0995463
0.100279
0.0982067
0.0939373
0.0495749
0.100347
0.101943
0.0987811
0.0987092
0.102916
0.0979925
0.0986497
0.101246
0.100236
0.104109
0.102696
0.100009
0.102098
0.1005
0.0998925
0.101163
0.0949174
0.100586
0.055368
0.0973924
0.102751
0.096297
0.10167
0.059599
0.0713446
0.0977922
0.101803
0.0954344
0.102487
0.101776
0.100706
0.101247
0.0976043
0.0702723
0.0998572
0.103689
0.0942075
0.102538
0.1003
0.0776979
0.0910403
0.102847
0.0977277
0.093619
0.101268
0.0775554
0.090266
0.101136
0.0941311
0.088288
0.0964326
0.101642
0.0653351
0.0999257
0.1016
0.100595
0.10007
0.0979699
0.0992346
0.0966075
0.102255
0.0654528
0.102055
0.101218
0.100713
0.099139
0.0993369
0.0992873
0.0991195
0.102947
0.0992211
0.10216
0.101319
0.100555
0.101151
0.100318
0.0990928
0.10231
0.102244
0.099319
0.101351
0.100643
0.100313
0.101674
0.101462
0.101793
0.100671
0.101825
0.101964
0.0954584
0.102566
0.0951104
0.101367
0.102248
0.1019
0.100214
0.102028
0.0981405
0.0951779
0.102917
0.100167
0.0900972
0.0943199
0.0995468
0.0995037
0.0999935
0.0918961
0.102699
0.0993622
0.0960196
0.10133
0.0951879
0.0961887
0.100581
0.0836779
0.0949634
0.0993719
0.0979299
0.101065
0.102538
0.0867674
0.100902
0.101191
0.0892319
0.0972622
0.101784
0.0898794
0.103426
0.102613
0.0852396
0.0962445
0.10367
0.0903789
0.100491
0.103682
0.0997854
0.100655
0.0850598
0.0893063
0.0948264
0.0931832
0.0684529
0.0792524
0.0921618
0.0734138
0.0824638
0.0946345
0.094009
0.0729386
0.0760838
0.0964557
0.100607
0.0634899
0.0768903
0.100313
0.0967644
0.100909
0.0784529
0.0657085
0.0657006
0.0572371
0.086539
0.0704174
0.0653797
0.0619576
0.0610317
0.0702076
0.0575152
0.0703834
0.0606701
0.0902363
0.0907919
0.0942806
0.0943949
0.0943189
0.0781508
0.098562
0.0899139
0.0904377
0.0985577
0.09432
0.0958328
0.0945766
0.0932695
0.117015
0.0949115
0.0956916
0.116826
0.0959575
0.0840781
0.0938954
0.0912533
0.0933463
0.0765467
0.0859694
0.0914349
0.0928451
0.0931063
0.0872832
0.0799591
0.0994513
0.0452495
0.0973437
0.0772314
0.0985881
0.0536379
0.0733589
0.0651217
0.0802663
0.0982576
0.0972635
0.0545096
0.0984228
0.0802298
0.0538211
0.0738794
0.0743073
0.0656202
0.0623681
0.0813275
0.0962716
0.0797058
0.0786717
0.062849
0.0807065
0.0819596
0.0562858
0.0618494
0.0607169
0.0408648
0.0586281
0.0609305
0.061667
0.087162
0.0716682
0.0608133
0.0703293
0.0686098
0.0870184
0.0742427
0.0722906
0.0950851
0.100353
0.100193
0.0955896
0.107322
0.0952087
0.0953559
0.110494
0.095171
0.0873101
0.0928624
0.0929143
0.0928076
0.0875399
0.0873036
0.0925382
0.0931468
0.0928255
0.0815322
0.0803103
0.0982629
0.0545982
0.0972619
0.0802629
0.0982635
0.0543291
0.0742564
0.0743793
0.0803243
0.0986227
0.097251
0.0529815
0.0982817
0.0796137
0.0543094
0.0742472
0.0722895
0.0771559
0.0634294
0.0798568
0.100171
0.0806007
0.0787352
0.0633587
0.0798728
0.0797351
0.0610461
0.0601172
0.0603171
0.0622308
0.0600456
0.0600408
0.0587718
0.0753226
0.0866415
0.0737736
0.0616563
0.0631801
0.0700745
0.0867367
0.0674113
0.0732679
0.095011
0.0998142
0.100191
0.095344
0.113061
0.0947814
0.0953159
0.113389
0.094648
0.0751163
0.0935371
0.0846337
0.0943851
0.0802332
0.072696
0.0842739
0.0919491
0.0944865
0.0647594
0.0743548
0.0988017
0.0525742
0.0969984
0.0797013
0.0997809
0.0669365
0.07186
0.0749441
0.101147
0.0969732
0.100644
0.0753924
0.066692
0.0604892
0.0765528
0.0659106
0.0895805
0.0598979
0.0689568
0.0495913
0.0683447
0.0657434
0.0839544
0.0575576
0.0491293
0.0823726
0.0566868
0.0899279
0.0880288
0.0918634
0.0901534
0.0940927
0.0944297
0.097029
0.092213
0.0953685
0.114314
0.0955057
0.0948517
0.115149
0.0978571
0.0635296
0.0917751
0.074404
0.0921169
0.0652969
0.0625073
0.0751332
0.0969335
0.0959144
0.0619174
0.0683537
0.101413
0.0958232
0.0758348
0.100881
0.0595902
0.062841
0.0690245
0.0975623
0.0961691
0.0980392
0.0680403
0.0567727
0.0498214
0.0681607
0.0500749
0.0893243
0.0951256
0.0944
0.089723
0.0938998
0.063618
0.0833644
0.0828023
0.0917205
0.0883723
0.0948093
0.0884212
0.0945581
0.0945261
0.1036
0.0930592
0.10364
0.0931334
0.069038
0.0957866
0.0665255
0.0945191
0.0618879
0.0679572
0.0665463
0.0939499
0.0921556
0.0830113
0.064241
0.0975151
0.0956718
0.0686093
0.0983129
0.0624614
0.0625407
0.0496801
0.0648816
0.0975101
0.0949981
0.0740563
0.0978379
0.0835481
0.0640884
0.0657562
0.0642833
0.0806719
0.058246
0.0884806
0.0936643
0.0921909
0.0930283
0.0931378
0.0927987
0.0927384
0.0976702
0.100107
0.0803418
0.0946821
0.0926108
0.0965801
0.0946664
0.0983376
0.0937527
0.0991538
0.0912791
0.0783295
0.0898695
0.0776295
0.0908045
0.0676952
0.081094
0.0935365
0.0928199
0.076784
0.0875201
0.10126
0.0949843
0.0954452
0.0632097
0.0827828
0.0994544
0.0997732
0.0972845
0.0674871
0.0642677
0.0644251
0.0850249
0.0687396
0.0720955
0.0864585
0.0723547
0.0864603
0.100108
0.100115
0.090395
0.0857641
0.090806
0.0975724
0.0855591
0.0855445
0.0890913
0.0878995
0.0862613
0.0858309
0.0870741
0.0924634
0.0897148
0.0997947
0.0953107
0.0973889
0.0958122
0.068482
0.0970809
0.0973435
0.0779311
0.0662573
0.066165
0.0716251
0.072656
0.0916234
0.0719817
0.0772678
0.0706179
0.0787744
0.0882945
0.0660827
0.0673334
0.0650138
0.0678475
0.0871093
0.09569
0.0982775
0.0720006
0.099241
0.0708961
0.0918118
0.0937032
0.0945756
0.102971
0.0999052
0.0864053
0.0967308
0.0981163
0.095972
0.0888477
0.0997814
0.0886618
0.0963311
0.0980073
0.0797638
0.0811782
0.0609106
0.101789
0.081644
0.0920508
0.0819936
0.101892
0.0935411
0.0815874
0.10178
0.100511
0.101187
0.107552
0.101049
0.0998034
0.101251
0.096659
0.0992383
0.108098
0.0998917
0.0990579
0.0956676
0.09612
0.0963663
0.0975291
0.05991
0.0975843
0.0969599
0.0573601
0.0964043
0.0971826
0.0542003
0.0968219
0.0556231
0.09751
0.104185
0.0819886
0.0981199
0.102126
0.0820757
0.10485
0.0996073
0.0820277
0.101949
0.100357
0.0820531
0.101517
0.0973472
0.100103
0.101359
0.101003
0.107969
0.100813
0.100749
0.101499
0.0991686
0.0967961
0.10039
0.10829
0.0998795
0.100996
0.101352
0.0966292
0.0998612
0.108246
0.10065
0.100196
0.0958468
0.0962177
0.0962502
0.0963635
0.0503534
0.0950716
0.0962904
0.0468991
0.096324
0.0950331
0.0312191
0.0962967
0.0465519
0.100494
0.103877
0.0821817
0.10142
0.102407
0.0820408
0.104057
0.100452
0.0823613
0.102306
0.100398
0.0822006
0.10124
0.0972238
0.0995161
0.101386
0.100454
0.108018
0.100556
0.101295
0.10137
0.0999871
0.0971675
0.100573
0.108158
0.100534
0.101309
0.101363
0.0972701
0.0999045
0.108142
0.100738
0.100576
0.0958155
0.096216
0.0962598
0.0962853
0.0953955
0.096267
0.0445959
0.0962875
0.0952169
0.04746
0.0963136
0.046968
0.103243
0.103689
0.0821156
0.102852
0.102678
0.0820518
0.103626
0.100482
0.0823291
0.102825
0.100394
0.0822176
0.101296
0.0972537
0.0997678
0.101447
0.100488
0.108044
0.100732
0.101393
0.101388
0.0999779
0.0973153
0.100716
0.108164
0.100631
0.101322
0.101392
0.097299
0.0999106
0.10816
0.10064
0.100574
0.0956563
0.096295
0.0962881
0.0963543
0.0473671
0.0958319
0.0964618
0.0462283
0.0968878
0.0965597
0.0577542
0.096609
0.053577
0.100269
0.103372
0.0819107
0.0994233
0.10364
0.0818473
0.103194
0.0924129
0.0820237
0.105776
0.0926413
0.0817907
0.101561
0.0972804
0.100443
0.101484
0.10098
0.108057
0.101089
0.101285
0.10145
0.100009
0.0949345
0.100858
0.108212
0.10049
0.100675
0.10157
0.0956164
0.098705
0.108299
0.0999135
0.09948
0.0966114
0.0964374
0.0971825
0.0970423
0.0577614
0.0983322
0.0973485
0.0609705
0.0961406
0.0982147
0.0719811
0.0973148
0.0620583
0.100715
0.102935
0.0813882
0.103539
0.10136
0.101767
0.0995758
0.101043
0.100006
0.0618699
0.0949463
0.0729363
0.0975354
0.0635159
0.0955313
0.0563663
0.0658066
0.0624594
0.060714
0.0962358
0.0749454
0.102142
0.0960472
0.0745175
0.064748
0.0621904
0.0975308
0.10012
0.0773798
0.0964359
0.05615
0.0784068
0.0766668
0.0619129
0.0648578
0.0922088
0.0678701
0.0698882
0.0958376
0.0934898
0.0962141
0.0872784
0.0895205
0.0815777
0.0987828
0.0890498
0.0979168
0.0873301
0.0981043
0.0725803
0.0971959
0.0930596
0.0884917
0.084484
0.0601943
0.0692451
0.0914755
0.0893205
0.0788354
0.0638397
0.0952025
0.0963234
0.0975042
0.0630482
0.0751231
0.0649349
0.0728987
0.0731557
0.0683911
0.0999832
0.0668607
0.0942712
0.0875101
0.102358
0.0960999
0.0734756
0.096512
0.0927073
0.0701573
0.100091
0.0955555
0.0931444
0.0848626
0.0806764
0.077794
0.0974474
0.0969651
0.0950257
0.0900439
0.0788131
0.0877027
0.0943167
0.0998422
0.101114
0.101972