/*--------------------------------*- C++ -*----------------------------------*\
  =========                 |
  \\      /  F ield         | OpenFOAM: The Open Source CFD Toolbox
   \\    /   O peration     | Website:  https://openfoam.org
    \\  /    A nd           | Version:  10
     \\/     M anipulation  |
\*---------------------------------------------------------------------------*/
FoamFile
{
    format      ascii;
    class       volScalarField;
    location    "0.05";
    object      k_0;
}
// * * * * * * * * * * * * * * * * * * * * * * * * * * * * * * * * * * * * * //

dimensions      [0 2 -2 0 0 0 0];

internalField   nonuniform List<scalar> 
115408
(
0.0974013
0.0976181
0.0975433
0.097564
0.0975522
0.0977642
0.0975807
0.0974725
0.097643
0.0975201
0.0973911
0.0975514
0.0976231
0.0977271
0.0975964
0.0975102
0.097576
0.0977279
0.0976944
0.0973979
0.0974066
0.0973986
0.0976694
0.0974982
0.0974306
0.0973945
0.0974012
0.0975375
0.0975788
0.0976693
0.0973945
0.0973934
0.0976959
0.0976509
0.0976189
0.097734
0.0988738
0.101967
0.100927
0.101
0.0982401
0.0977152
0.098328
0.10165
0.105336
0.101816
0.0980259
0.0980122
0.0977605
0.0978107
0.098138
0.0979985
0.0976262
0.0980423
0.0981756
0.0982473
0.097817
0.0985327
0.102438
0.100576
0.100383
0.101911
0.102667
0.0986242
0.0978817
0.101375
0.101189
0.0982418
0.0980831
0.0977397
0.102437
0.100874
0.0982538
0.101231
0.100124
0.0982809
0.0975532
0.0975459
0.100191
0.100807
0.101266
0.0988325
0.0979401
0.0975796
0.104386
0.0983334
0.102314
0.101522
0.10176
0.102461
0.0978083
0.097697
0.0978165
0.0980132
0.0995549
0.0982213
0.0995885
0.105247
0.10031
0.098167
0.0992242
0.100705
0.0982117
0.0985181
0.10072
0.0994783
0.0987954
0.0989083
0.100464
0.0987849
0.0977117
0.0991211
0.100845
0.0983537
0.0980041
0.0990896
0.0983938
0.0980809
0.0987975
0.0997454
0.0984925
0.0976756
0.0994153
0.101073
0.0986587
0.100229
0.0991376
0.101555
0.0991155
0.098584
0.100665
0.0985437
0.0977161
0.0989584
0.100977
0.0998618
0.100403
0.098357
0.0995438
0.104043
0.0990001
0.102343
0.0997334
0.0999354
0.0998599
0.0982978
0.0986399
0.0976384
0.0976248
0.0990883
0.100283
0.0984314
0.100437
0.0980297
0.0977464
0.0988451
0.0991261
0.0998908
0.100962
0.100811
0.1001
0.100093
0.0985888
0.0984688
0.100939
0.102379
0.100984
0.10959
0.101878
0.0995336
0.0982928
0.098344
0.101166
0.0993145
0.0991977
0.101427
0.101038
0.101626
0.101288
0.100985
0.101071
0.0983719
0.0976849
0.0983695
0.101356
0.0992505
0.0989253
0.102519
0.101869
0.101514
0.101941
0.100862
0.0988849
0.0981181
0.0974674
0.0983771
0.101465
0.0990992
0.0988389
0.101462
0.100323
0.100615
0.101619
0.100624
0.0991099
0.0983312
0.0975613
0.0984515
0.101111
0.0992846
0.0987891
0.101521
0.0996821
0.102094
0.10079
0.107511
0.107341
0.0985299
0.101621
0.0996901
0.099528
0.099347
0.100956
0.100837
0.110103
0.103237
0.105269
0.101398
0.101872
0.101181
0.103738
0.1026
0.104504
0.103127
0.099195
0.101123
0.100078
0.0639632
0.099808
0.0987973
0.0982957
0.0977375
0.0978089
0.0997027
0.0991707
0.102474
0.0886191
0.0930704
0.0984274
0.0985982
0.0977692
0.0974434
0.0978662
0.0998007
0.0991969
0.102575
0.100378
0.0637994
0.0626906
0.0958246
0.0986046
0.0982264
0.0977533
0.0974154
0.0978325
0.0997986
0.0991755
0.102411
0.0951436
0.0592148
0.0512473
0.0943749
0.0983616
0.0983392
0.0977364
0.0974742
0.0979027
0.0999291
0.0991089
0.102554
0.0821906
0.0734236
0.0988918
0.098907
0.100282
0.100281
0.0951276
0.0619732
0.0998516
0.0983385
0.0730385
0.0962585
0.0978862
0.0991072
0.104855
0.101388
0.0966096
0.0964126
0.0978007
0.0980557
0.0978635
0.097614
0.0987013
0.0993947
0.0959496
0.0971543
0.0979858
0.0974717
0.0974979
0.0975586
0.0985495
0.0993636
0.0959885
0.0967661
0.0978892
0.0974594
0.097411
0.0975603
0.0985536
0.0993646
0.0961157
0.0972809
0.0979749
0.0974902
0.0975016
0.0976041
0.098628
0.0993721
0.0961568
0.0969726
0.0980233
0.0995023
0.100299
0.0962188
0.100479
0.0914152
0.0991413
0.101718
0.0979883
0.0991915
0.0994817
0.0996452
0.0963979
0.0990809
0.097978
0.0976011
0.0977248
0.0988768
0.0984184
0.0961885
0.0947958
0.098977
0.0978405
0.0974317
0.097729
0.098829
0.0982557
0.0968595
0.0952294
0.0989471
0.0978471
0.0974267
0.0977979
0.0988071
0.0983636
0.095966
0.0952728
0.0989645
0.0978363
0.0974348
0.0978415
0.0989272
0.0991993
0.0969799
0.0974487
0.0988656
0.0989568
0.0995067
0.100114
0.101719
0.103252
0.0952353
0.0817143
0.104456
0.1055
0.102855
0.106332
0.0983856
0.0983805
0.100024
0.0990433
0.100385
0.106082
0.101462
0.100798
0.100022
0.112684
0.107003
0.0981658
0.0982069
0.101761
0.101477
0.100326
0.100408
0.101164
0.103889
0.0995317
0.109824
0.106349
0.0981273
0.0981884
0.101839
0.100319
0.100276
0.103395
0.0997013
0.100478
0.0997818
0.107651
0.10599
0.0981071
0.098217
0.101819
0.10142
0.0995761
0.100518
0.103385
0.102066
0.0988594
0.109662
0.106429
0.0980947
0.0982668
0.0999062
0.0987808
0.0992818
0.0983896
0.101334
0.100633
0.10579
0.110033
0.10664
0.0981506
0.0986164
0.0995401
0.0987217
0.0998139
0.101531
0.106183
0.102175
0.100435
0.104579
0.100756
0.101516
0.101443
0.106023
0.104895
0.0991715
0.0983706
0.0983403
0.0982559
0.102064
0.100298
0.0981378
0.0976433
0.0999297
0.101315
0.0996051
0.0982008
0.0981213
0.0980833
0.0984371
0.101127
0.0994915
0.0979928
0.0975699
0.0994372
0.0997915
0.0991169
0.0980913
0.0980419
0.0980748
0.0981737
0.100605
0.0993416
0.0979816
0.0975438
0.0992993
0.0995513
0.0990146
0.0980692
0.0980334
0.098046
0.0981506
0.100593
0.0993139
0.0979687
0.0975688
0.0993287
0.0996939
0.0990861
0.0980671
0.0980649
0.0980407
0.0982079
0.100536
0.0994479
0.0979896
0.0976534
0.0998417
0.10074
0.0994416
0.0981418
0.0981041
0.0980874
0.0990375
0.101654
0.100085
0.0980631
0.0980154
0.100535
0.102676
0.0987446
0.0990931
0.0983851
0.0988684
0.101767
0.100555
0.0988731
0.0980789
0.0979692
0.0974011
0.0973935
0.0973955
0.0973994
0.0975043
0.097582
0.0974698
0.0975622
0.0975063
0.0974056
0.0973959
0.0973881
0.0973917
0.0973969
0.0974844
0.0975194
0.0974738
0.0974973
0.097482
0.0973961
0.097393
0.0973869
0.0973893
0.0974018
0.0974913
0.0975116
0.0974659
0.0974982
0.0974821
0.0973945
0.0973927
0.0973869
0.097389
0.0974007
0.0974925
0.0975116
0.0974808
0.0975096
0.0974826
0.0973966
0.0973933
0.0973875
0.0973913
0.0973961
0.0974853
0.0975173
0.0974626
0.0975602
0.0975058
0.0974034
0.0973969
0.0973912
0.0973923
0.0973973
0.0975101
0.0975715
0.0975297
0.0977723
0.0977229
0.0973982
0.0973957
0.0973924
0.0973892
0.0974683
0.0974128
0.097408
0.0716439
0.0780239
0.0952471
0.101565
0.100865
0.101763
0.0688795
0.102278
0.101125
0.103343
0.0672076
0.0626222
0.100399
0.100198
0.101936
0.0771253
0.0645644
0.0885346
0.10506
0.101393
0.0995629
0.0837088
0.0953422
0.0975491
0.102534
0.101957
0.101897
0.101644
0.102449
0.0674896
0.103165
0.0849481
0.103157
0.10142
0.102098
0.0684694
0.0628273
0.088009
0.0854091
0.101856
0.101195
0.101928
0.0630444
0.0968055
0.0868713
0.100923
0.100159
0.101713
0.0999189
0.10028
0.102414
0.1011
0.102213
0.10217
0.102434
0.102187
0.103301
0.0860645
0.101131
0.081732
0.102398
0.101902
0.102393
0.0890702
0.0856355
0.0828245
0.071312
0.1023
0.101418
0.102557
0.087074
0.101495
0.0749347
0.0997145
0.0999052
0.102112
0.100059
0.101244
0.102148
0.100798
0.10223
0.10118
0.102312
0.103017
0.0999127
0.0800087
0.0965968
0.0433208
0.101359
0.101386
0.100538
0.079666
0.0696636
0.102076
0.101241
0.104215
0.0741351
0.0967893
0.0851867
0.0997475
0.10234
0.0998977
0.100229
0.102261
0.0864394
0.102347
0.103726
0.100188
0.0999505
0.0967226
0.0767443
0.0997625
0.101032
0.100751
0.103313
0.100954
0.0997906
0.0854956
0.0571264
0.105008
0.103966
0.105636
0.0869963
0.102488
0.062605
0.102722
0.0996179
0.0993899
0.100268
0.0700366
0.0824341
0.100664
0.101314
0.100684
0.0984442
0.100888
0.0998126
0.05064
0.0643546
0.11182
0.0602915
0.0727478
0.102851
0.10403
0.103587
0.101803
0.0888903
0.097659
0.100591
0.101844
0.101242
0.10285
0.0905755
0.0976236
0.0991014
0.10085
0.102995
0.103479
0.0998141
0.0978966
0.100345
0.104571
0.100767
0.0704891
0.0996045
0.104682
0.107896
0.0979095
0.0943013
0.0999777
0.0500908
0.0615485
0.0919493
0.11099
0.0979439
0.0962857
0.102423
0.0844728
0.0972797
0.090277
0.0574482
0.0844244
0.0954078
0.0913733
0.0899683
0.110081
0.104279
0.0988281
0.0986925
0.099033
0.0956571
0.0998314
0.0946868
0.0994967
0.0826923
0.102612
0.093391
0.0974308
0.0974542
0.100194
0.0643329
0.0631748
0.0608219
0.0856355
0.0625995
0.0879951
0.0899623
0.0954417
0.0900737
0.103734
0.105652
0.0985982
0.0986177
0.098655
0.0947079
0.0993089
0.0958917
0.0992048
0.0935314
0.102539
0.0927332
0.0973855
0.0975448
0.0654018
0.0975092
0.0619484
0.0609243
0.0606837
0.047875
0.0882415
0.0547995
0.086314
0.0900548
0.0953166
0.090056
0.10534
0.1008
0.0986145
0.0985467
0.0986404
0.095901
0.0991114
0.0948269
0.0990391
0.0901915
0.102448
0.0814069
0.0976269
0.0965443
0.061171
0.0821631
0.0837814
0.0696794
0.0898319
0.0756893
0.0906425
0.103148
0.110933
0.0985089
0.0987014
0.0985458
0.0949292
0.0992466
0.0952261
0.0991384
0.0826738
0.0947725
0.0652751
0.0964163
0.0969541
0.0661121
0.0678944
0.0908483
0.0971533
0.111204
0.0989102
0.0982407
0.100705
0.095337
0.099247
0.0626943
0.102888
0.0744971
0.0974854
0.0983779
0.0680348
0.0570858
0.099508
0.0961515
0.100051
0.0931295
0.0777647
0.0951957
0.0949538
0.0937127
0.0945135
0.102048
0.100906
0.102118
0.100698
0.09684
0.0951811
0.0911779
0.0928197
0.0970808
0.102564
0.100489
0.0663902
0.0963656
0.10212
0.0974063
0.10034
0.101674
0.0624823
0.0540945
0.102572
0.102461
0.102116
0.0959079
0.100952
0.098472
0.112039
0.104973
0.0965997
0.0965814
0.102017
0.09963
0.101983
0.0992238
0.101186
0.0992084
0.101599
0.0958149
0.0985182
0.0958071
0.111996
0.112677
0.0993613
0.111602
0.0984958
0.0972058
0.0982081
0.0959597
0.0983272
0.0970836
0.0982713
0.102
0.0994317
0.101952
0.0990772
0.101777
0.0991828
0.101935
0.0960152
0.0954808
0.0961298
0.112211
0.11301
0.111226
0.112746
0.0982777
0.096793
0.0981574
0.0973109
0.0983125
0.0973442
0.0982299
0.101969
0.0994081
0.101967
0.0991277
0.101932
0.0991362
0.101864
0.0960944
0.0958657
0.0952023
0.112859
0.11153
0.112725
0.112438
0.0981586
0.0971503
0.0981726
0.0972813
0.0982483
0.0973305
0.0982205
0.101993
0.0994867
0.102052
0.0990159
0.101875
0.098971
0.101366
0.0959388
0.0953084
0.0975619
0.112093
0.113656
0.112093
0.086062
0.0982101
0.0970177
0.0982275
0.0974596
0.0982371
0.0960681
0.0980355
0.101968
0.0991979
0.101502
0.0987054
0.10135
0.0983749
0.100028
0.0964145
0.0979189
0.0967375
0.114058
0.0850279
0.0981975
0.0992604
0.0980381
0.100986
0.101392
0.0983606
0.0983609
0.0994325
0.100177
0.0991449
0.0992957
0.0976693
0.098851
0.0942827
0.08045
0.0943795
0.0946167
0.0884442
0.100344
0.0590582
0.0974341
0.100755
0.0928578
0.0547789
0.103167
0.103576
0.102191
0.102481
0.0530273
0.0534068
0.111222
0.103019
0.0998353
0.0998969
0.100014
0.101616
0.100356
0.103172
0.101209
0.103402
0.0954949
0.0932143
0.0988826
0.0997536
0.0964434
0.0981614
0.0975975
0.0985061
0.0979181
0.10137
0.0999024
0.102597
0.086851
0.103752
0.0996988
0.093892
0.0885012
0.101111
0.0987117
0.0956781
0.10252
0.0942474
0.100601
0.103053
0.102243
0.101801
0.101699
0.097218
0.0991506
0.0975737
0.104635
0.0980211
0.102537
0.0869015
0.105089
0.0821396
0.0922551
0.087966
0.0864976
0.0921957
0.0962008
0.0989381
0.0963669
0.0927802
0.0966673
0.103488
0.10053
0.101757
0.0988956
0.103572
0.0958283
0.10466
0.09753
0.103993
0.0982844
0.105131
0.0825276
0.101782
0.0863816
0.0873007
0.0921429
0.088029
0.0928125
0.0961959
0.0925125
0.094156
0.0980924
0.103743
0.101827
0.0988146
0.0924227
0.0992473
0.101892
0.0967103
0.0997271
0.0977984
0.0977286
0.0962017
0.101904
0.0874542
0.0945533
0.0999995
0.0929031
0.0896368
0.102096
0.102083
0.0943604
0.0995979
0.101733
0.10273
0.100422
0.0904195
0.0995787
0.101772
0.102263
0.102267
0.0986995
0.0976394
0.0965278
0.0991857
0.0994555
0.0951648
0.101126
0.101477
0.0990322
0.103321
0.0997166
0.0977587
0.0969488
0.10046
0.103495
0.0972888
0.102388
0.0879728
0.103722
0.102198
0.104095
0.0952481
0.0993857
0.0997461
0.101538
0.101671
0.101601
0.0982878
0.10611
0.0964625
0.100719
0.0960851
0.104404
0.0963343
0.0991626
0.101252
0.104158
0.104019
0.102171
0.0680101
0.10069
0.100184
0.100915
0.10136
0.0671886
0.0697234
0.102224
0.100927
0.10182
0.1009
0.101689
0.104036
0.102028
0.104198
0.109007
0.102901
0.105392
0.101383
0.102799
0.105113
0.106544
0.103754
0.105242
0.100799
0.0943708
0.105336
0.100433
0.103363
0.105451
0.101846
0.098537
0.100387
0.10396
0.104632
0.103754
0.104578
0.102224
0.102622
0.099768
0.103137
0.104621
0.102633
0.10398
0.095733
0.103576
0.103951
0.102865
0.10618
0.102734
0.104299
0.100975
0.103345
0.0994391
0.103559
0.104129
0.103542
0.104195
0.100291
0.100068
0.0999226
0.102666
0.103653
0.102365
0.103134
0.103252
0.100537
0.102732
0.102439
0.104289
0.102244
0.104187
0.0990931
0.101494
0.101138
0.103433
0.104101
0.103443
0.103897
0.0998761
0.101768
0.0992508
0.102313
0.103153
0.102575
0.103631
0.102687
0.100568
0.103748
0.102158
0.104163
0.102253
0.104232
0.100505
0.0986604
0.102215
0.103537
0.104088
0.10331
0.104131
0.100593
0.101801
0.10288
0.102497
0.103784
0.102885
0.104218
0.103196
0.100602
0.10479
0.102278
0.104083
0.102624
0.105733
0.101617
0.101016
0.0992745
0.101973
0.104307
0.101522
0.105397
0.102062
0.0986539
0.0948741
0.10308
0.104424
0.104064
0.105249
0.102578
0.0979243
0.101797
0.102813
0.105061
0.104156
0.0999803
0.0989924
0.103098
0.0979495
0.09692
0.102778
0.0990757
0.10307
0.0979001
0.0967614
0.0978359
0.0966125
0.103456
0.0990562
0.103844
0.0978276
0.0968392
0.0978364
0.0967881
0.102945
0.0992202
0.104573
0.0978348
0.0953925
0.0979822
0.0948657
0.101619
0.0990649
0.102208
0.0986176
0.0948346
0.10346
0.078596
0.101832
0.0997078
0.102314
0.103545
0.0759714
0.103228
0.0801943
0.101838
0.0990423
0.100657
0.0986362
0.100386
0.0829074
0.0646432
0.0857006
0.0748001
0.0894143
0.100618
0.0991837
0.100665
0.0984215
0.10001
0.0983675
0.0997429
0.075059
0.0953451
0.0804001
0.0620231
0.0580462
0.0598305
0.0679769
0.100535
0.0952815
0.100036
0.100651
0.0992078
0.100646
0.0983555
0.0997422
0.098368
0.0998179
0.0767256
0.0999946
0.0794595
0.0613579
0.0628483
0.0610079
0.0716359
0.0623665
0.0707295
0.100527
0.0954086
0.100469
0.100593
0.0991881
0.100707
0.0983942
0.0999444
0.0984943
0.100677
0.0807261
0.0915687
0.0611366
0.0624007
0.0541083
0.100318
0.0919732
0.08883
0.100828
0.0993902
0.100247
0.098539
0.100818
0.0984713
0.100647
0.0560993
0.0708583
0.0837796
0.0619541
0.0853396
0.100038
0.100481
0.100282
0.0996194
0.0997392
0.100717
0.0972032
0.0684486
0.0942729
0.0975403
0.100873
0.0940769
0.0722664
0.0983236
0.0588399
0.083959
0.106123
0.0843994
0.0787332
0.0847722
0.0883279
0.0989122
0.102525
0.101867
0.0960278
0.0971508
0.0965239
0.101668
0.100864
0.0975889
0.101983
0.101189
0.101306
0.108034
0.0961039
0.09644
0.0964072
0.10141
0.100105
0.0973494
0.101844
0.100626
0.100906
0.108107
0.0960126
0.0964611
0.0964276
0.101273
0.0995885
0.0975575
0.101813
0.100453
0.100602
0.108182
0.0958151
0.0964779
0.0964229
0.101535
0.0999633
0.0977664
0.101864
0.100869
0.100859
0.108181
0.0963917
0.0966714
0.0969201
0.102048
0.100662
0.0987683
0.101777
0.101599
0.10147
0.107971
0.0606177
0.0955177
0.0960947
0.0617002
0.0957012
0.0946827
0.101086
0.100367
0.0938954
0.0761501
0.0902297
0.0977652
0.0729516
0.0944995
0.0888018
0.0822546
0.0910236
0.0669354
0.069951
0.0868831
0.0878738
0.101768
0.0982379
0.103126
0.099956
0.0992788
0.0940435
0.0996215
0.102658
0.099748
0.0986181
0.104968
0.105852
0.0989739
0.0989059
0.0849526
0.0969028
0.100609
0.102334
0.0992805
0.100174
0.0995858
0.100077
0.0996053
0.101161
0.100016
0.104218
0.0921554
0.066944
0.0968585
0.0953066
0.0608652
0.0936697
0.0946867
0.059657
0.0713534
0.076966
0.0995371
0.095508
0.0994465
0.101245
0.0991488
0.101303
0.0983799
0.0997004
0.0984229
0.0996773
0.100397
0.109075
0.0996345
0.100163
0.0841307
0.0542472
0.095906
0.0994135
0.0526149
0.0798974
0.0988745
0.053995
0.059947
0.0994957
0.0951987
0.0991304
0.101701
0.0983917
0.102946
0.0990117
0.0996344
0.0983861
0.0996526
0.0994448
0.100046
0.0996033
0.100266
0.0839054
0.0568137
0.0967053
0.0990307
0.0523248
0.0830502
0.0986213
0.0505646
0.0405115
0.0992066
0.0951663
0.0991096
0.101805
0.0987244
0.102477
0.0990355
0.0997805
0.0992681
0.100112
0.100341
0.100774
0.100019
0.101247
0.0894244
0.0529978
0.0959407
0.0991369
0.0578975
0.0842016
0.0981566
0.0623138
0.0605029
0.0993385
0.0998669
0.0991186
0.101552
0.0985879
0.102375
0.0985472
0.100069
0.0993491
0.0998136
0.0995489
0.100736
0.0995083
0.102109
0.0938609
0.0619788
0.099601
0.0944727
0.0675868
0.0928766
0.0949061
0.0613847
0.0849935
0.078023
0.0993916
0.101006
0.0981826
0.0691885
0.0748715
0.0898247
0.04292
0.0680825
0.0485383
0.0768006
0.101934
0.0947622
0.100751
0.101419
0.101394
0.105894
0.0978576
0.058402
0.102407
0.0847461
0.099382
0.0972499
0.0894794
0.0903833
0.102073
0.094228
0.104945
0.0791546
0.101084
0.102036
0.101617
0.101818
0.100885
0.105415
0.0892271
0.104261
0.103576
0.101315
0.101257
0.103123
0.105339
0.10205
0.100325
0.101774
0.0994766
0.109781
0.102966
0.100765
0.101628
0.104233
0.102577
0.107111
0.102167
0.106404
0.101552
0.0990939
0.09805
0.104742
0.103234
0.102641
0.101748
0.103398
0.100156
0.102321
0.101627
0.104922
0.101557
0.104511
0.0976897
0.097661
0.102519
0.104493
0.0978307
0.0922584
0.102185
0.0987539
0.101859
0.100986
0.10434
0.0997286
0.100544
0.105267
0.0981166
0.0997835
0.098563
0.102684
0.101576
0.102706
0.100683
0.101974
0.100329
0.104482
0.101529
0.104307
0.101528
0.104462
0.0975075
0.0979755
0.100462
0.101632
0.098047
0.097576
0.10172
0.094844
0.0985037
0.100356
0.106566
0.098557
0.09484
0.10657
0.0990982
0.0998304
0.0982239
0.10265
0.100565
0.102633
0.10155
0.104474
0.100174
0.102569
0.101606
0.104744
0.102068
0.106652
0.0992083
0.0976962
0.103749
0.103217
0.0988483
0.0987723
0.102067
0.0990203
0.0990454
0.103339
0.102955
0.100785
0.0974841
0.101866
0.0980668
0.104726
0.101122
0.102454
0.101607
0.104395
0.103017
0.101479
0.100621
0.103154
0.10236
0.110676
0.0998816
0.101649
0.101121
0.102665
0.101408
0.108896
0.102638
0.101896
0.0996904
0.0997618
0.100661
0.102288
0.103906
0.109832
0.09915
0.0992082
0.10253
0.103054
0.103186
0.105789
0.107259
0.0991013
0.0992099
0.101651
0.102665
0.108431
0.103823
0.0990008
0.0990078
0.101852
0.103774
0.102538
0.0981644
0.0977772
0.0987239
0.0983313
0.102133
0.102267
0.102215
0.0977292
0.0978599
0.0981972
0.0984488
0.0982592
0.0985179
0.0952798
0.0987668
0.0781959
0.0988664
0.0539569
0.0991038
0.0704591
0.098151
0.0991535
0.098851
0.0825058
0.0994727
0.098035
0.0815237
0.0984586
0.100677
0.060352
0.0799078
0.0988279
0.0982939
0.0795378
0.097136
0.0475389
0.100693
0.101397
0.0993026
0.101573
0.102112
0.0983225
0.0975674
0.102383
0.0574241
0.0610228
0.101889
0.0973016
0.0987808
0.100946
0.0624702
0.100349
0.0982502
0.0978597
0.103266
0.0941364
0.100709
0.0590392
0.0978408
0.101216
0.0847106
0.095623
0.101861
0.0642483
0.0970863
0.102403
0.0528782
0.0763054
0.102333
0.096657
0.0615466
0.0973961
0.0963495
0.0844335
0.0813984
0.102053
0.097621
0.066023
0.0916634
0.102415
0.0992215
0.0861127
0.0943637
0.103537
0.0987477
0.101092
0.103369
0.0907859
0.101656
0.106486
0.100348
0.0959655
0.0926538
0.100013
0.0831951
0.0995781
0.0980056
0.102944
0.094898
0.0962593
0.101398
0.0805117
0.0826102
0.0977831
0.102982
0.0957711
0.0991757
0.100687
0.100926
0.0969912
0.100797
0.100426
0.0950501
0.0954479
0.103507
0.0837515
0.0961072
0.103222
0.0953084
0.0953132
0.0970733
0.104031
0.0610051
0.0848895
0.097351
0.104301
0.0684768
0.098102
0.102187
0.0630024
0.0765783
0.0981815
0.102665
0.0688603
0.0975245
0.104548
0.0859682
0.0860929
0.104241
0.0976453
0.0664341
0.0982411
0.102956
0.0802087
0.0858168
0.102994
0.0981203
0.0708834
0.0971677
0.104235
0.0763551
0.0827705
0.0974006
0.104304
0.0914042
0.097723
0.0969942
0.0819034
0.100144
0.0978553
0.0973002
0.0881694
0.097155
0.105151
0.0853099
0.0857687
0.104768
0.0970674
0.0917223
0.0976161
0.0976245
0.100474
0.0848764
0.0974939
0.0975381
0.0885253
0.0997191
0.100683
0.0961284
0.103317
0.0996898
0.100656
0.0967965
0.0951806
0.104095
0.0954648
0.0849738
0.0951371
0.103964
0.0960127
0.100367
0.101496
0.103425
0.0928127
0.101027
0.0989822
0.09637
0.0953663
0.103772
0.0848507
0.0912384
0.103841
0.0954931
0.0957496
0.0972503
0.105364
0.0860707
0.087947
0.0973115
0.105217
0.086006
0.0976378
0.103093
0.0858264
0.0847186
0.0976597
0.103031
0.0856981
0.0972508
0.104965
0.0876986
0.06704
0.105074
0.096911
0.0852549
0.097705
0.102926
0.0842772
0.0647778
0.102966
0.0978603
0.083903
0.0972321
0.105121
0.0855718
0.0863926
0.0972153
0.10499
0.0899298
0.0976124
0.0978772
0.0848813
0.101546
0.0975518
0.0978771
0.0871669
0.0972035
0.104452
0.0860467
0.0887502
0.104874
0.0972624
0.0931397
0.0975591
0.0977879
0.100797
0.0878474
0.0977914
0.0976542
0.0898624
0.0980558
0.102752
0.0907098
0.101352
0.0927568
0.0999429
0.0798545
0.0980761
0.102595
0.0878341
0.0671573
0.0965765
0.100874
0.0798181
0.0975357
0.100289
0.100258
0.0714969
0.100113
0.09771
0.0790055
0.0975775
0.100043
0.066112
0.063177
0.100624
0.0980966
0.0802228
0.0973976
0.10394
0.0644865
0.0646975
0.0970931
0.103376
0.0602523
0.0981122
0.101394
0.0634747
0.061331
0.0980734
0.101182
0.0624002
0.0976362
0.102003
0.0640127
0.101368
0.096698
0.0586637
0.0987686
0.100104
0.0604165
0.100811
0.0979184
0.0581125
0.0971615
0.10299
0.0867235
0.061109
0.0972908
0.103077
0.0716274
0.0979394
0.0971157
0.0865293
0.0925832
0.0981239
0.0967605
0.0756957
0.0965421
0.102588
0.0624661
0.0579294
0.102469
0.0971917
0.070369
0.0973201
0.10528
0.0898258
0.0624102
0.102162
0.0973753
0.0738988
0.101596
0.105456
0.0979163
0.0969818
0.106573
0.101917
0.0978161
0.0980168
0.0988403
0.0670692
0.0897954
0.0982583
0.101575
0.0647148
0.0998779
0.0993804
0.0703837
0.0990506
0.0989818
0.0576096
0.0978599
0.102805
0.08062
0.101908
0.0956832
0.0603453
0.0996751
0.100465
0.0984662
0.0941612
0.0500322
0.10054
0.102062
0.0990407
0.0988466
0.103005
0.098227
0.0988971
0.101473
0.100413
0.10418
0.102816
0.100178
0.102197
0.10066
0.100083
0.101307
0.0951064
0.100699
0.0558572
0.0976172
0.102946
0.0964969
0.101907
0.0602281
0.071869
0.0979717
0.102062
0.0956282
0.102626
0.101941
0.100831
0.101547
0.0978907
0.0707807
0.100107
0.103799
0.0944005
0.102676
0.100495
0.0782493
0.0913219
0.103006
0.0980414
0.0938097
0.101412
0.0780727
0.0907094
0.101272
0.0943104
0.0887367
0.0967068
0.101784
0.0659345
0.100245
0.101734
0.100724
0.100246
0.0981718
0.0994394
0.0968793
0.102432
0.066058
0.102196
0.10154
0.10084
0.0993596
0.0995435
0.099503
0.0993019
0.103057
0.0993983
0.102323
0.101469
0.100713
0.101299
0.100494
0.099279
0.102479
0.10241
0.0995069
0.101503
0.100812
0.100492
0.101814
0.101587
0.101931
0.100785
0.101959
0.102038
0.0957594
0.102634
0.0953311
0.101496
0.10238
0.102035
0.100339
0.102101
0.0983738
0.0954068
0.10305
0.100326
0.0905304
0.094498
0.0997013
0.0996428
0.10015
0.0922113
0.102861
0.0995358
0.0962927
0.101433
0.0955268
0.0964012
0.10083
0.084182
0.0951862
0.0996124
0.0982965
0.101279
0.102739
0.0873234
0.101088
0.101395
0.0896499
0.0975108
0.101959
0.090332
0.103525
0.102799
0.0857385
0.0964966
0.103778
0.0907685
0.100645
0.10391
0.100026
0.100855
0.0854343
0.0897046
0.0951931
0.0936517
0.0690352
0.0797668
0.0923916
0.0740402
0.0829255
0.0948735
0.0942473
0.0736269
0.0766532
0.0966452
0.1007
0.0641018
0.0774522
0.100415
0.0969548
0.100998
0.0790588
0.0663263
0.0663665
0.0577393
0.0871267
0.0710416
0.0658939
0.0626349
0.0615265
0.070753
0.0580242
0.0708581
0.0612509
0.0906293
0.0910405
0.0946349
0.0946851
0.094659
0.078719
0.0988377
0.0903367
0.0906693
0.0987442
0.0945409
0.0960956
0.0949114
0.0937265
0.117128
0.0953028
0.0960553
0.116953
0.0963265
0.0846002
0.0941432
0.0915818
0.093581
0.0772252
0.0865189
0.0917838
0.0930881
0.0933433
0.0878233
0.0803869
0.0995741
0.0447118
0.0975134
0.0777699
0.0987376
0.0540417
0.0739491
0.0657118
0.0806881
0.0984126
0.0974321
0.0549207
0.0985752
0.0806546
0.0542254
0.0744544
0.0748769
0.0663484
0.0628832
0.0819834
0.0966114
0.080293
0.0793906
0.0633503
0.0813365
0.0827497
0.0568713
0.0623649
0.0612489
0.0413526
0.0592085
0.06148
0.062264
0.0874998
0.0722315
0.0613891
0.0708317
0.0690834
0.0873438
0.0748218
0.0728281
0.0953877
0.100523
0.100379
0.0959379
0.107687
0.0955438
0.0956668
0.110731
0.0955094
0.0878544
0.0931041
0.0932182
0.0930511
0.0880826
0.0878494
0.092853
0.0933827
0.0930704
0.0820432
0.0807321
0.0984172
0.0550096
0.0974309
0.0806876
0.0984186
0.0547373
0.0748251
0.0749476
0.0807452
0.0987707
0.0974198
0.0533783
0.0984363
0.0800367
0.0547179
0.0748162
0.0728821
0.0778361
0.063932
0.0804805
0.100469
0.0812841
0.0793284
0.0638596
0.0805617
0.0803592
0.0615949
0.0606663
0.0608691
0.0627406
0.060579
0.0605906
0.0593166
0.075899
0.0869894
0.0743233
0.0622034
0.0636999
0.070529
0.0870664
0.0679197
0.0737709
0.0953457
0.100016
0.100369
0.0956541
0.113222
0.0951087
0.0956449
0.113544
0.0949849
0.075714
0.0937728
0.0850256
0.0946116
0.0807425
0.0732891
0.084681
0.092185
0.0947179
0.0653536
0.0747757
0.0989443
0.0529664
0.0971873
0.0801276
0.0998884
0.0674839
0.0724339
0.075398
0.10123
0.0971649
0.100739
0.0759543
0.0672759
0.0610637
0.0771127
0.0665849
0.0901283
0.0604062
0.0696363
0.0500652
0.0689116
0.066267
0.084476
0.0581374
0.0495235
0.0829707
0.0572526
0.0903988
0.088454
0.0922803
0.0903916
0.0943924
0.0947718
0.097278
0.0925834
0.0957086
0.114514
0.0958774
0.0952356
0.115307
0.0982663
0.0641537
0.092007
0.0750054
0.0923559
0.0658783
0.0631806
0.0757256
0.0971642
0.0961967
0.0625681
0.0688355
0.101489
0.0960157
0.0762979
0.10098
0.0601982
0.0634097
0.0695795
0.0976637
0.0963659
0.0981724
0.0685108
0.0573305
0.0502597
0.0687851
0.0504701
0.08972
0.0953307
0.0947476
0.090112
0.0942478
0.0641124
0.0837909
0.0832826
0.0919455
0.0887486
0.0951973
0.0888574
0.0949272
0.094918
0.104165
0.0935041
0.104194
0.0935764
0.0697008
0.0960305
0.0671035
0.0948532
0.0625297
0.0686334
0.0671164
0.0941977
0.0925236
0.0835155
0.0646854
0.0976121
0.0958347
0.0690727
0.098435
0.063149
0.063271
0.0500975
0.0654594
0.0976929
0.0951769
0.0748306
0.0979967
0.0840257
0.0647366
0.0664743
0.0650688
0.0812572
0.0587487
0.0888532
0.0938249
0.0924928
0.0933203
0.0934778
0.092961
0.0929813
0.0978657
0.100322
0.0808524
0.0949012
0.0928139
0.0967952
0.09496
0.0985026
0.0939649
0.0994081
0.0915854
0.0790828
0.0901509
0.0780815
0.091126
0.0683358
0.0816397
0.0938816
0.0931328
0.0774663
0.0880172
0.101469
0.09519
0.0957237
0.0638775
0.0832853
0.0997363
0.100054
0.0976441
0.0682369
0.0650863
0.0652652
0.0853891
0.0696436
0.0729614
0.0870413
0.0729667
0.0870348
0.100324
0.100336
0.0907619
0.0861573
0.0912347
0.0977656
0.0859506
0.0860036
0.0895424
0.0883443
0.0866822
0.0862464
0.0874929
0.0928558
0.0901382
0.099981
0.0955333
0.0976532
0.0960231
0.0691617
0.0973319
0.0976195
0.0786702
0.0668587
0.0668391
0.0723557
0.0735004
0.0919655
0.0726617
0.0779336
0.0713474
0.0795445
0.0887057
0.0667669
0.0678914
0.0656924
0.0684696
0.0875239
0.0960466
0.0985668
0.0727482
0.0993757
0.0715854
0.0920791
0.0940408
0.09486
0.103136
0.100043
0.0868225
0.0969012
0.0982848
0.0961956
0.0892707
0.0999116
0.0891247
0.0965937
0.0981698
0.0805946
0.0820641
0.0616174
0.102365
0.0820426
0.092459
0.0824255
0.102477
0.0939332
0.0820199
0.101786
0.100581
0.10153
0.10763
0.101087
0.0998547
0.101591
0.0968614
0.099301
0.108135
0.0999478
0.0991245
0.0958695
0.0963458
0.0965924
0.097742
0.0606063
0.097749
0.0971743
0.0579241
0.0966229
0.0973446
0.0545993
0.0970396
0.0561884
0.0980734
0.104711
0.0823775
0.0986814
0.10271
0.082466
0.105369
0.100083
0.0824354
0.102536
0.100861
0.0824563
0.101534
0.0976716
0.100171
0.101708
0.101055
0.10808
0.100854
0.10079
0.10184
0.0992343
0.097058
0.100444
0.108377
0.0999436
0.101029
0.1017
0.0968952
0.0999296
0.10834
0.100696
0.10026
0.0960402
0.0964429
0.0964746
0.0965848
0.0506619
0.0952524
0.0965122
0.047193
0.0965482
0.0952132
0.0315315
0.0965189
0.0468461
0.10101
0.104419
0.0825743
0.10191
0.102984
0.0824343
0.104595
0.100977
0.0827557
0.102883
0.100925
0.082594
0.101266
0.0975277
0.0995882
0.101734
0.10051
0.108118
0.100602
0.101321
0.101716
0.100055
0.0974686
0.100623
0.10826
0.100596
0.101333
0.101711
0.0975763
0.0999749
0.108243
0.100782
0.100636
0.0960084
0.0964414
0.0964839
0.0965097
0.0955799
0.096491
0.0449178
0.0965104
0.0954002
0.0477557
0.0965355
0.0472904
0.103678
0.104234
0.0825098
0.103294
0.10325
0.0824457
0.104172
0.101005
0.0827212
0.103393
0.100921
0.0826102
0.101319
0.0975455
0.0998407
0.101794
0.100544
0.108142
0.100775
0.101415
0.101734
0.100048
0.097622
0.100761
0.108262
0.100689
0.101347
0.101739
0.0976047
0.0999804
0.10826
0.100688
0.100634
0.0958566
0.0965237
0.096513
0.0965749
0.0476609
0.0960026
0.0966825
0.046734
0.097106
0.0967249
0.0583158
0.0968261
0.0541085
0.100793
0.103929
0.0823046
0.099959
0.10418
0.0822462
0.103755
0.0930249
0.0824291
0.106282
0.0932584
0.0822051
0.101576
0.0976014
0.100512
0.101826
0.101033
0.108162
0.101126
0.10131
0.101796
0.100079
0.0952321
0.1009
0.108302
0.10055
0.100721
0.101908
0.095885
0.0987683
0.108372
0.0999699
0.0995451
0.0968262
0.0966395
0.0974063
0.0972579
0.0583662
0.0985139
0.0975641
0.0616718
0.0963175
0.098379
0.0725959
0.0975267
0.0627591
0.101291
0.103491
0.0817858
0.104092
0.101381
0.102105
0.0996298
0.101074
0.10006
0.0625252
0.0951498
0.0736777
0.0976964
0.0641824
0.0957555
0.0568854
0.0665631
0.063121
0.0613929
0.096402
0.0755099
0.102179
0.0962318
0.0748758
0.0653184
0.0628475
0.0976949
0.100204
0.0777543
0.0966123
0.0566321
0.0788321
0.0772147
0.0625639
0.0654271
0.0927477
0.0685421
0.0705001
0.0960402
0.0937542
0.0964637
0.0877902
0.0899415
0.0819332
0.0991692
0.0893751
0.0980516
0.0876854
0.0982771
0.0730335
0.0974004
0.0933702
0.0889811
0.0850222
0.0607043
0.0698471
0.0916811
0.0897495
0.0792899
0.0643867
0.0954765
0.0965842
0.0978127
0.0637052
0.075628
0.0657222
0.0734827
0.073712
0.06893
0.100291
0.0675232
0.0944519
0.0881977
0.102449
0.0965066
0.0742015
0.0967551
0.0930845
0.0708918
0.100281
0.0959134
0.0935786
0.0851047
0.0811297
0.0783807
0.0976361
0.0971442
0.0952812
0.0905401
0.079492
0.0881334
0.0947179
0.100106
0.101647
0.10211
0.103577
0.104412