/*--------------------------------*- C++ -*----------------------------------*\
  =========                 |
  \\      /  F ield         | OpenFOAM: The Open Source CFD Toolbox
   \\    /   O peration     | Website:  https://openfoam.org
    \\  /    A nd           | Version:  10
     \\/     M anipulation  |
\*---------------------------------------------------------------------------*/
FoamFile
{
    format      ascii;
    class       volScalarField;
    location    "0.05";
    object      nut;
}
// * * * * * * * * * * * * * * * * * * * * * * * * * * * * * * * * * * * * * //

dimensions      [0 2 -1 0 0 0 0];

internalField   nonuniform List<scalar> 
115408
(
0.00993408
0.00985922
0.00978767
0.00992348
0.00992749
0.00970625
0.00991704
0.00994937
0.00993589
0.00994594
0.0099716
0.00996721
0.00992678
0.00987905
0.00979023
0.00985245
0.00978976
0.0098771
0.00976692
0.00995547
0.0099547
0.00994137
0.00978283
0.00989867
0.00994339
0.00996234
0.00995455
0.00984977
0.00981264
0.00982654
0.00995314
0.0099441
0.00977986
0.00980299
0.00978981
0.00987551
0.00808638
0.00611877
0.00641157
0.00895311
0.00962178
0.00983112
0.00969438
0.00875407
0.00534831
0.00865212
0.00963855
0.00971233
0.00986691
0.00981114
0.00974406
0.00963564
0.00951724
0.00967435
0.00973267
0.00964727
0.00985064
0.00962005
0.00860427
0.00618503
0.00679975
0.00629912
0.00852014
0.00953065
0.00983597
0.00894484
0.00608018
0.00855459
0.00889656
0.00937949
0.0062124
0.0089631
0.00961526
0.00898132
0.00708235
0.00866722
0.00953439
0.00957296
0.00737612
0.00908607
0.00619981
0.00735624
0.00888511
0.00935307
0.00557854
0.0096164
0.00865622
0.00620402
0.00617942
0.00859216
0.00976892
0.00968755
0.00963258
0.00916802
0.0088365
0.00894503
0.00778252
0.00540665
0.00913652
0.00975357
0.0094181
0.00677148
0.00894203
0.00851023
0.00706024
0.00757559
0.00803909
0.00826477
0.00898945
0.0095919
0.00989654
0.00944035
0.00671398
0.00877279
0.00916386
0.00790753
0.00882276
0.00910952
0.00839492
0.00923296
0.009733
0.00990144
0.00937327
0.00665744
0.00867053
0.00718176
0.00819797
0.00662707
0.00826662
0.00860842
0.00896011
0.00965333
0.00987663
0.00948768
0.00677456
0.00739054
0.00719862
0.00927876
0.00938075
0.00620423
0.00824863
0.00619567
0.00925758
0.00905282
0.00727718
0.00848847
0.00947157
0.0095594
0.00957261
0.00892922
0.00715162
0.00846333
0.00907269
0.00923241
0.00945065
0.00850966
0.007953
0.00744853
0.0068905
0.00704303
0.0072275
0.00675814
0.00724773
0.00732865
0.00532917
0.00449269
0.00388603
0.00251548
0.00642828
0.00932233
0.00972149
0.00972159
0.00665429
0.00776903
0.00388052
0.00351012
0.00360871
0.00369893
0.0033501
0.0073242
0.00671843
0.00965921
0.00988636
0.00975154
0.006581
0.00780437
0.00393686
0.00319616
0.00339296
0.00352129
0.00321072
0.00742647
0.00817865
0.00972626
0.00994962
0.00977792
0.00654705
0.0079076
0.00392141
0.00342951
0.00424917
0.00408121
0.00343052
0.00751724
0.00807631
0.00966573
0.00992191
0.00968151
0.00667808
0.00779908
0.00384656
0.00376028
0.00450861
0.00288736
0.0040248
0.00277057
0.00530275
0.00965482
0.00650203
0.00756753
0.00371287
0.00427211
0.00657328
0.00673261
0.00328913
0.00605108
0.00291115
0.00319784
0.00501033
0.00649461
0.0031716
0.00323888
0.00274034
0.00287337
0.00825062
0.00666674
0.00740843
0.0003015
0.00405477
0.00851499
0.00961757
0.00987266
0.00985352
0.00779474
0.00886254
0.00497042
0.000656173
0.000919473
0.00431475
0.00866018
0.0098539
0.00995671
0.00983791
0.0077145
0.00888073
0.00500604
0.000849602
0.000328555
0.00031963
0.0010227
0.00434495
0.0087673
0.00986001
0.00996467
0.00984732
0.00771707
0.00888833
0.00497172
0.000810756
0.00026485
5.14132e-05
0.00093172
0.00427479
0.00875385
0.00986233
0.00994674
0.00982758
0.00763804
0.00891968
0.00487448
0.000666055
0.000516672
0.00409039
0.00849169
0.00742498
0.00792777
0.00158648
0.000266882
0.00342085
0.00163828
0.000420974
0.00124852
0.00154358
0.00119213
0.00307981
0.00660111
0.00164147
0.00138854
0.00953583
0.00967999
0.00983726
0.00991126
0.00858448
0.00864088
0.00196974
0.00142676
0.00952696
0.00994909
0.00994256
0.00992382
0.00870858
0.00866691
0.00195817
0.00142491
0.00947832
0.00995713
0.00996625
0.00992388
0.00870643
0.00867963
0.00194852
0.00142104
0.0094967
0.00994439
0.00994104
0.00991279
0.0086527
0.00869187
0.00175243
0.0014339
0.00942261
0.00800746
0.00811387
0.00201113
0.0033232
0.00125276
0.00330446
0.00331556
0.00980476
0.00871505
0.00829314
0.00256596
0.00181561
0.00837352
0.00979511
0.00992096
0.00987722
0.00924329
0.00911184
0.00251759
0.00163629
0.00845598
0.00983157
0.00995978
0.00987615
0.00951735
0.0092477
0.00255346
0.00166278
0.0084748
0.00983102
0.00996114
0.00985656
0.00944255
0.00914933
0.00250094
0.00165439
0.0084404
0.00983239
0.00995837
0.00984366
0.00953012
0.00846898
0.00280707
0.00228995
0.00843034
0.00902586
0.0081531
0.00318157
0.00687759
0.00411356
0.00149141
0.000728357
0.00263009
0.00253636
0.00624328
0.00665993
0.00965206
0.00975076
0.00765502
0.00804472
0.00358458
0.00332048
0.00181408
0.00161088
0.00127034
0.00285763
0.00564855
0.0097094
0.00979271
0.00768036
0.00653884
0.00302203
0.00178708
0.0012706
0.00127749
0.001838
0.00333484
0.00569552
0.00971895
0.00981255
0.00802517
0.00712569
0.00435297
0.00220106
0.00148431
0.00177918
0.0015983
0.00332202
0.0056721
0.00972303
0.00980501
0.00782123
0.00657524
0.00375976
0.00180016
0.00128485
0.00153675
0.00176901
0.00339962
0.00570542
0.00972555
0.00974371
0.00772169
0.00825989
0.00403345
0.00128265
0.00168403
0.00162944
0.00106241
0.00357876
0.00562717
0.00970773
0.00965965
0.00799149
0.00821248
0.00367155
0.00477208
0.00336565
0.00503436
0.00743953
0.00494267
0.00445588
0.00372307
0.0038877
0.00491891
0.00260124
0.00833128
0.00917119
0.00913254
0.00880529
0.00648142
0.00912476
0.00976069
0.00989752
0.00926979
0.00684337
0.00794224
0.00918521
0.00925451
0.0092527
0.00907451
0.00808368
0.00931483
0.0097982
0.00991803
0.0093553
0.00777479
0.00845065
0.00922505
0.0092757
0.00927066
0.0092349
0.0085208
0.00934709
0.00980155
0.00992563
0.00939144
0.0079252
0.00857031
0.00923291
0.00928324
0.00928115
0.00924994
0.00836467
0.00935181
0.00980527
0.00991821
0.00938819
0.00783169
0.00850088
0.0092289
0.00927466
0.00927374
0.00919437
0.00789564
0.00932011
0.00979902
0.00989479
0.00929206
0.0071872
0.00824368
0.00920643
0.00925349
0.00923801
0.00906069
0.00805865
0.00915988
0.0097806
0.0097929
0.00914885
0.00620732
0.00838007
0.0084936
0.00913177
0.00906708
0.00867987
0.00719157
0.008518
0.0092378
0.00926491
0.00994819
0.009953
0.0099508
0.0099556
0.00984175
0.00991816
0.00994765
0.00992355
0.00990047
0.0099525
0.0099562
0.00996034
0.0099587
0.00995718
0.00984207
0.00993583
0.0099469
0.00994182
0.00991957
0.00995912
0.00995943
0.00996196
0.00996119
0.00995395
0.0098387
0.00993786
0.00994862
0.00994147
0.00992086
0.00996026
0.00995991
0.00996216
0.00996148
0.00995456
0.00983904
0.0099379
0.00994431
0.00993802
0.0099208
0.00995831
0.00995928
0.00996175
0.00995987
0.00995759
0.00984199
0.00993615
0.00994982
0.00992408
0.00990266
0.00995385
0.00995435
0.00995836
0.00995435
0.00995637
0.00983994
0.00992098
0.00993039
0.00986378
0.00974675
0.00995138
0.00995701
0.00995831
0.00995956
0.00991183
0.00995521
0.00995333
0.00049056
0.000556954
0.00154652
0.00347392
0.00405512
0.00161514
0.000403362
0.00349999
0.00422217
0.00286118
0.000368985
0.000323623
0.00384153
0.00470118
0.0031695
0.000569496
0.000333275
0.000785352
0.0025979
0.00344741
0.00333346
0.000655538
0.00153637
0.00152293
0.0030285
0.0031489
0.0032948
0.00329302
0.00179492
0.000457789
0.00211187
0.000997006
0.00274057
0.0034758
0.00307453
0.000403222
0.000328316
0.00112117
0.000938017
0.00300541
0.00382423
0.00298516
0.000337835
0.00118752
0.0010012
0.00110666
0.00318677
0.00328213
0.00326369
0.00174779
0.00292771
0.00136205
0.00272055
0.00303258
0.00318831
0.00299968
0.0020608
0.000990601
0.00159655
0.000807914
0.00292747
0.00340134
0.00295222
0.00114124
0.000951168
0.0008606
0.00048282
0.00287444
0.0034901
0.00282486
0.00101665
0.00114667
0.000520802
0.0012113
0.00325239
0.00318977
0.00324441
0.00137409
0.00272165
0.00143318
0.00276874
0.00360391
0.00326238
0.00271107
0.00174721
0.000733481
0.000997854
3.68013e-05
0.00349049
0.00342089
0.00413086
0.000714791
0.000466045
0.00301122
0.0036336
0.00258923
0.000534561
0.00107494
0.000846648
0.00323482
0.00331983
0.0031719
0.00148642
0.0029235
0.000795339
0.00282732
0.00294407
0.00360215
0.00465159
0.00105176
0.000525578
0.0052987
0.00618127
0.00466619
0.00269859
0.00643314
0.00432504
0.000885955
0.000122225
0.00260461
0.00292918
0.00265054
0.000852135
0.0027977
0.000286363
0.0031251
0.0049704
0.00416217
0.00416778
0.000393337
0.000518105
0.00486131
0.00593531
0.00469572
0.00365275
0.0066248
0.00493962
5.46384e-05
0.00032535
0.00328906
0.000215954
0.000463474
0.00302199
0.00299133
0.00297059
0.00499342
0.00098893
0.00138832
0.00226051
0.00322751
0.00365426
0.00286115
0.000585938
0.0015439
0.00116707
0.00432989
0.00279612
0.00314171
0.00128881
0.00112068
0.00377729
0.00271469
0.00352957
0.000447903
0.00128954
0.00276225
0.00224976
0.00120597
0.0010389
0.00252446
6.01525e-05
0.000220351
0.00134548
0.00165081
0.00159269
0.00145524
0.0049886
0.000778566
0.00203311
0.00072121
0.00019099
0.000742494
0.00197985
0.000888277
0.00128738
0.00168357
0.00155705
0.00306262
0.00428923
0.00346999
0.00147892
0.00697761
0.00159093
0.00625023
0.000705225
0.0050014
0.00135739
0.00215836
0.00225446
0.000851816
0.000332176
0.000325239
0.000311724
0.000776828
0.000318174
0.000828679
0.00129351
0.00101212
0.00130476
0.00155261
0.00178373
0.00368148
0.00436341
0.00368185
0.00161658
0.00617866
0.00167328
0.00657475
0.00136794
0.00498024
0.00127777
0.00225517
0.00223841
0.000337807
0.000788285
0.000304087
0.00031324
0.00029331
5.14542e-05
0.000843387
0.000174685
0.000834492
0.00130617
0.000992471
0.00129446
0.00175638
0.00147832
0.00370352
0.00436492
0.00370785
0.00167607
0.00645059
0.00164711
0.00603664
0.001151
0.00497948
0.000694298
0.00219103
0.00200797
0.000288798
0.000645021
0.000723306
0.000486441
0.00129108
0.000543577
0.00131718
0.00155829
0.00189008
0.00371938
0.00421933
0.00368271
0.00164861
0.00638366
0.00150259
0.0057154
0.000756839
0.00153845
0.000302005
0.00204099
0.00206639
0.000353297
0.000424665
0.00127827
0.00162073
0.00182348
0.00344444
0.00216575
0.00346171
0.0014902
0.00595063
0.000251517
0.00366376
0.000465192
0.00226058
0.00444194
0.000333844
6.91803e-05
0.00254341
0.00127174
0.00362701
0.0011451
0.000553305
0.00137262
0.00117202
0.00132475
0.00144803
0.00180105
0.00140172
0.00164945
0.00149773
0.00130962
0.00125814
0.00106948
0.00106038
0.00113023
0.00301385
0.00335661
0.000253872
0.00150023
0.00381067
0.00111841
0.00394294
0.00302625
0.00010881
9.28925e-05
0.00474412
0.00338833
0.00183437
0.00141984
0.00647432
0.00208373
0.00138408
0.00170059
0.00137115
0.0016793
0.00568595
0.00842403
0.00504651
0.00861149
0.00605442
0.00866237
0.00509963
0.00194745
0.00191821
0.00215569
0.00134411
0.00149439
0.00136105
0.00179443
0.00691184
0.00142364
0.00738703
0.00161339
0.00689729
0.00145111
0.00705057
0.00483889
0.00860778
0.00486801
0.00879162
0.00496002
0.0087377
0.00473948
0.00195227
0.00212444
0.00196165
0.00153681
0.00180888
0.00163705
0.00157703
0.007259
0.00142313
0.00745502
0.00143935
0.00701484
0.00142793
0.00721969
0.00482171
0.00863319
0.00485867
0.00878873
0.00478252
0.00876933
0.004843
0.00195122
0.00199648
0.00210252
0.00182879
0.00158602
0.0015698
0.00157637
0.00748449
0.00142099
0.00742916
0.00143032
0.00721785
0.00143417
0.00722993
0.00484876
0.00858691
0.00514707
0.00882797
0.00479978
0.00881285
0.0053996
0.00179841
0.00210647
0.00219009
0.00153022
0.0013643
0.00160334
0.000592834
0.00739113
0.00143076
0.00738978
0.00144236
0.00722479
0.0011398
0.00771833
0.00553677
0.00873339
0.00647922
0.00896082
0.00572515
0.00916344
0.00731817
0.00184333
0.00214981
0.00330834
0.00135162
0.000629093
0.00749361
0.00150126
0.00776984
0.00704317
0.00298714
0.00400772
0.00913233
0.00805478
0.00713471
0.00766665
0.00428566
0.00366599
0.00176206
0.0014921
0.000629085
0.000672576
0.00104651
0.00089449
0.00381696
3.38289e-05
0.00147205
0.00307513
0.000603688
9.72316e-05
0.00506962
0.000926498
0.00522254
0.00198705
0.000101662
0.000141535
0.00131537
0.000930006
0.00269016
0.0039398
0.00119612
0.00146676
0.00154786
0.00149882
0.00182467
0.00189277
0.00141493
0.00110166
0.0014322
0.00394057
0.00246543
0.00479669
0.00142268
0.00509646
0.00214996
0.00168072
0.00145034
0.00260038
0.000779363
0.00150565
0.00184635
0.000815637
0.000742991
0.00183992
0.00197691
0.000847165
0.00141286
0.001183
0.00135535
0.00137731
0.00274956
0.00197539
0.00336307
0.00258927
0.00545373
0.0020616
0.0048516
0.00207655
0.00276594
0.000827482
0.00222286
0.000597847
0.000822317
0.000712719
0.000656966
0.00164868
0.000838022
0.00116634
0.00191175
0.00105994
0.00122715
0.00162859
0.00188982
0.00344211
0.00182273
0.00344193
0.00251669
0.00487182
0.00208232
0.00388507
0.00218896
0.00221461
0.000603294
0.00288209
0.000844218
0.000673686
0.00164149
0.000727488
0.00121629
0.00190056
0.0010437
0.00108204
0.00124353
0.00163422
0.00150742
0.0018112
0.00101459
0.00174949
0.0038227
0.00277877
0.00600681
0.00220418
0.0053298
0.00148361
0.00282805
0.000823423
0.00139291
0.00190007
0.000774808
0.000869887
0.00173329
0.00202927
0.000816522
0.00128595
0.00186155
0.00241853
0.00138306
0.000879488
0.00183187
0.00342433
0.00174006
0.00351362
0.00266685
0.00532534
0.00144163
0.00440047
0.0012378
0.00125874
0.00167373
0.0013876
0.00153268
0.00168332
0.00182586
0.00151616
0.0014756
0.00176493
0.00207288
0.00148798
0.00119569
0.000863529
0.00152499
0.00277373
0.00135881
0.00157377
0.00408519
0.00107428
0.00285544
0.00480467
0.00151242
0.00134658
0.00375199
0.00101491
0.00147275
0.00132777
0.00142056
0.0010078
0.00171063
0.00120073
0.00142273
0.00129637
0.00106925
0.000353424
0.0061354
0.00364229
0.00337959
0.00354925
0.000339249
0.000425248
0.00537021
0.0037343
0.00554554
0.00371355
0.00569871
0.00296332
0.00200975
0.00541826
0.00212836
0.00288723
0.00270697
0.0015944
0.00212493
0.00286392
0.00246616
0.0030038
0.0026755
0.00159235
0.00135766
0.00285776
0.00243817
0.00305706
0.0025404
0.00200519
0.00161609
0.00125564
0.00298015
0.00271702
0.00297238
0.0027177
0.00207662
0.00126857
0.0011902
0.00307057
0.00273288
0.00313018
0.00274948
0.00126518
0.00139648
0.00212618
0.00310195
0.002621
0.00308733
0.00273934
0.00137267
0.00220394
0.00142481
0.00298129
0.00268487
0.00297024
0.00272074
0.0011774
0.00148374
0.00171798
0.00315687
0.00272263
0.00321181
0.00272483
0.00197451
0.00176989
0.00171098
0.00309849
0.00275445
0.00320654
0.00270954
0.00142439
0.00195698
0.00135571
0.00298276
0.00273063
0.0029867
0.00270933
0.00171754
0.00125955
0.00163988
0.00321958
0.00272076
0.00316085
0.00274733
0.00170397
0.00184044
0.00182832
0.00322458
0.00270902
0.00321958
0.00269632
0.00127996
0.00147735
0.00187946
0.0029808
0.00275753
0.0030335
0.00276984
0.00135613
0.00165512
0.00207076
0.00313963
0.00276507
0.00308954
0.00276762
0.00190889
0.00165236
0.00213046
0.00317411
0.00274333
0.00312661
0.00265406
0.00179796
0.00410464
0.00105778
0.00337499
0.00279348
0.00313448
0.00258007
0.00203929
0.00116508
0.00106603
0.00307123
0.00274082
0.00293333
0.00255442
0.00147839
0.00128231
0.00294503
0.00311926
0.00258437
0.00294893
0.00247252
0.00388836
0.0029545
0.00585024
0.00143926
0.00293303
0.00390795
0.00293952
0.00586489
0.00144247
0.00589094
0.00178359
0.00286897
0.00389101
0.00281687
0.00589356
0.00178397
0.00590186
0.00169157
0.00289866
0.00382948
0.00273602
0.00594063
0.00162968
0.00583854
0.00139315
0.00332665
0.00385432
0.00318441
0.00526215
0.00146514
0.00367894
0.0005503
0.00303957
0.00371372
0.0029229
0.00435187
0.000485131
0.00404678
0.000570425
0.00356495
0.00881619
0.00419917
0.00899594
0.00646646
0.000625968
0.000274044
0.000726786
0.000504199
0.000951482
0.00417382
0.00887551
0.0041173
0.00914495
0.00640919
0.00918276
0.0065448
0.000510063
0.000856082
0.000598323
0.000313868
0.000257477
0.00028794
0.000408833
0.00202407
0.00101658
0.00199128
0.00411726
0.00885732
0.00413419
0.00919117
0.00655458
0.00918259
0.00651319
0.000505266
0.000830125
0.000598219
0.000307883
0.000322072
0.000300337
0.00050162
0.000315518
0.000487837
0.00205841
0.000990912
0.0020268
0.00417892
0.00884671
0.00419133
0.0091653
0.00646632
0.00909456
0.00633525
0.000611311
0.000715384
0.000243689
0.000329387
0.000122656
0.00206361
0.000910057
0.000875178
0.00414143
0.00843
0.00666246
0.00906119
0.00622559
0.00910392
0.00695043
8.93836e-05
0.000395618
0.000697372
0.000220701
0.000706887
0.00664408
0.00295889
0.00435313
0.00861315
0.00824495
0.00333874
0.00422421
0.00034187
0.00241961
0.00174282
0.00403356
0.001277
0.000400676
0.00291484
0.000124798
0.000789694
0.00160992
0.000714717
0.000572181
0.000909774
0.0010749
0.00285381
0.00143909
0.00141011
0.00179996
0.00148798
0.00154713
0.00649442
0.00562254
0.00120836
0.00103164
0.00627119
0.00656811
0.00143632
0.00194608
0.00156989
0.00156135
0.00679171
0.00619759
0.00130294
0.0010363
0.00684187
0.00705733
0.00146082
0.0019551
0.00156819
0.00155916
0.00690012
0.00638052
0.00133824
0.00103928
0.00708987
0.00709517
0.0014806
0.00191539
0.00156802
0.00155742
0.00659625
0.00616947
0.00125958
0.00103382
0.00669923
0.00703026
0.0014353
0.00164964
0.00155782
0.00150937
0.00574537
0.00589222
0.00116262
0.00104122
0.00628246
0.00665622
0.00154477
0.000289652
0.00234535
0.00199292
0.000295493
0.00227948
0.00100724
0.0028415
0.00559939
0.0014458
0.00035625
0.00096239
0.00350138
0.000400536
0.0013685
0.000801192
0.000530511
0.0013184
0.000280613
0.000339871
0.000771671
0.000777588
0.00256167
0.000634082
0.00169076
0.00225317
0.000838253
0.00120169
0.00444054
0.00304511
0.00811214
0.00786652
0.00366901
0.00259646
0.00870083
0.00774392
0.000734085
0.00181692
0.0066795
0.00418529
0.00277927
0.00736777
0.00825122
0.00710862
0.00791418
0.00324482
0.00763278
0.00255386
0.00166494
0.000393434
0.00274589
0.00161651
0.000296376
0.00184691
0.00158713
0.000119802
0.000473219
0.000532827
0.00637241
0.00167107
0.00655636
0.0040718
0.00329214
0.00446909
0.00355843
0.00698321
0.00911298
0.00686817
0.00770147
0.00347306
0.00838622
0.00392258
0.000810595
0.000230757
0.00248874
0.00172479
0.00022002
0.000643571
0.00204346
0.000177231
0.000282735
0.00661246
0.00165812
0.00589824
0.00449334
0.00354318
0.00571227
0.00362984
0.0066033
0.00913979
0.00698878
0.008691
0.00406093
0.00844363
0.00364996
0.000792944
0.000140671
0.00241079
0.00206614
0.000216865
0.000789164
0.00215202
0.000146733
7.33547e-05
0.00595626
0.00166326
0.00596977
0.00322
0.00368957
0.00548192
0.0036368
0.00663278
0.00844735
0.00757866
0.00774337
0.00397872
0.00763022
0.00324681
0.00131495
0.000223482
0.00270033
0.00201038
0.000253152
0.000803373
0.00175715
0.0002844
0.000221434
0.00643203
0.0021927
0.00706468
0.0041746
0.00357083
0.00581704
0.00372205
0.00726119
0.00831459
0.00805993
0.00793346
0.00335552
0.00797568
0.00303903
0.00198266
0.000305919
0.00257118
0.00159498
0.00040274
0.00165425
0.00161727
0.000125517
0.000766631
0.000599577
0.00760028
0.00408693
0.00365522
0.000450315
0.000471421
0.000712569
4.43097e-05
0.000442759
9.60539e-05
0.000541476
0.00550614
0.0013842
0.0036603
0.00473055
0.003042
0.0031836
0.00180227
6.10075e-05
0.00141274
0.000722993
0.00141309
0.00131163
0.000710166
0.00101747
0.00112901
0.000919215
0.00208644
0.00059992
0.00322525
0.00218692
0.00356246
0.00323761
0.00349867
0.00239745
0.00104246
0.00399873
0.00226007
0.00384271
0.00369389
0.00327742
0.00240609
0.00366134
0.00366918
0.00677409
0.00718779
0.00246048
0.00515401
0.00393346
0.00345488
0.00152789
0.00622504
0.00220625
0.00645488
0.00252873
0.0035486
0.00181237
0.00520406
0.0028871
0.00511534
0.00317219
0.00257012
0.00178194
0.00444653
0.00205372
0.00681261
0.00263664
0.00683116
0.00267824
0.0016835
0.00161487
0.00134992
0.00156611
0.00212778
0.00112191
0.00140905
0.00375834
0.00154737
0.00142371
0.00361234
0.00117046
0.00463062
0.00377691
0.00573171
0.0015952
0.00593963
0.00313715
0.00294988
0.00311992
0.00314415
0.00203666
0.00404475
0.00213038
0.00682894
0.00269937
0.0068399
0.00268676
0.00171147
0.00197665
0.00147851
0.00145511
0.00205555
0.00173449
0.00144464
0.00148146
0.00149139
0.00182846
0.00127958
0.0013954
0.00148553
0.00127962
0.00343776
0.00172631
0.00583614
0.00312655
0.00314762
0.00313638
0.00295508
0.0020631
0.00379868
0.00387738
0.00681296
0.00266139
0.00647972
0.00249262
0.00589832
0.00163634
0.00137985
0.00488416
0.00161986
0.00407479
0.00482197
0.00593963
0.00137367
0.00148296
0.00513095
0.00186989
0.00408983
0.00466003
0.0051992
0.00121588
0.00380195
0.0031933
0.00258632
0.0029114
0.00517467
0.00374905
0.00364693
0.00286117
0.00636428
0.00222499
0.00831782
0.00579636
0.00378823
0.00403112
0.00294572
0.00249514
0.00524303
0.00673793
0.00722607
0.00349898
0.00400959
0.00328357
0.00545917
0.00218433
0.00906956
0.00696508
0.00209595
0.0056307
0.00339341
0.00272934
0.00235935
0.00901183
0.00718434
0.00324594
0.00580318
0.00255056
0.00466978
0.00879336
0.00781239
0.00416422
0.00274949
0.00323593
0.00946856
0.00811473
0.00910982
0.007771
0.00398486
0.00305011
0.00324128
0.00956934
0.00806599
0.00929747
0.00777773
0.00153693
0.00162212
0.000961088
0.00151364
0.000593092
0.00151819
0.000179956
0.00137435
0.000383446
0.00160327
0.00153835
0.00139631
0.000640418
0.00151146
0.00156487
0.000693694
0.0015468
0.00135879
0.000267301
0.000572744
0.00131506
0.00157192
0.000621573
0.00175438
8.96343e-05
0.00195031
0.00154192
0.00143656
0.00152971
0.00187682
0.00159644
0.00160197
0.00143
0.000236645
0.000311394
0.0014352
0.00163634
0.00154004
0.00133573
0.000310455
0.00128822
0.00161768
0.00170854
0.00123404
0.00145435
0.00188784
0.000293828
0.00204416
0.00123691
0.000811056
0.00199134
0.00123263
0.000348537
0.00168224
0.00146402
5.63674e-05
0.000584196
0.00147516
0.00165427
0.000321321
0.00190112
0.00131764
0.000811717
0.000706835
0.0011365
0.00176134
0.000378869
0.00108209
0.00144644
0.00164862
0.000734848
0.00136632
0.00140212
0.00195784
0.00243155
0.00414594
0.000952135
0.00230349
0.00125876
0.00446265
0.00173904
0.00107292
0.00148793
0.000684515
0.00180749
0.00162186
0.00167874
0.00144997
0.00156792
0.00122726
0.000608849
0.000878326
0.00166006
0.00123235
0.0012973
0.00309085
0.00642336
0.00169582
0.00146025
0.00549345
0.00416321
0.00129663
0.00174346
0.00121411
0.000927818
0.00119881
0.00121746
0.00180332
0.00118385
0.00159715
0.00136077
0.000313823
0.00096852
0.00154991
0.00134035
0.00046477
0.00158019
0.00121136
0.000314475
0.000585979
0.00156907
0.00121753
0.000405814
0.0016472
0.00131965
0.00101382
0.00100303
0.0013306
0.00162793
0.000314367
0.00161972
0.00120803
0.000712468
0.00100614
0.00120971
0.00162813
0.000472289
0.00170693
0.00136352
0.000570336
0.000736371
0.00171108
0.00136466
0.0012906
0.0017193
0.00129448
0.000735255
0.00117624
0.00171875
0.00130891
0.00102679
0.00172602
0.00133814
0.000872248
0.0010045
0.00134863
0.00173115
0.00138586
0.00172668
0.00130464
0.00115462
0.000838947
0.00131069
0.00173459
0.00107909
0.00419797
0.00645161
0.00133477
0.00208085
0.00417142
0.00647194
0.00143739
0.00183086
0.00119293
0.00111578
0.000998396
0.00183269
0.0011952
0.00119484
0.00410205
0.00542676
0.00214366
0.00124436
0.00625814
0.00299101
0.00142971
0.00182086
0.00119482
0.000989832
0.00105244
0.00119893
0.00175788
0.00119621
0.0017102
0.00130006
0.00101086
0.00111526
0.00169424
0.00130167
0.000981658
0.00170053
0.00120248
0.00101654
0.000905506
0.00168802
0.00120326
0.000989164
0.00171127
0.00131347
0.00110012
0.000366074
0.00130575
0.00172542
0.000937689
0.00170342
0.00120092
0.000880032
0.000339854
0.00120632
0.00168902
0.000877284
0.00172164
0.00132472
0.00100068
0.00097344
0.00172949
0.00132601
0.00124608
0.0017155
0.00130184
0.000851817
0.00115088
0.00172505
0.0013029
0.000982968
0.00171701
0.00134818
0.000951395
0.00112426
0.00133056
0.00170254
0.0015608
0.00171348
0.00129955
0.00115873
0.00108048
0.00129894
0.00170269
0.00118887
0.00161099
0.00166229
0.00107295
0.00159046
0.00105285
0.00148593
0.000578189
0.00159572
0.00125441
0.000732662
0.000349597
0.00157339
0.00126025
0.000619623
0.001683
0.00144212
0.00167513
0.000406098
0.00146354
0.00170069
0.000583105
0.00161643
0.00128553
0.000331264
0.000246358
0.00139057
0.00158796
0.000649188
0.0015711
0.00135957
0.000341796
0.000334326
0.00159037
0.00135276
0.000296487
0.0016276
0.001232
0.00032755
0.000313089
0.0015781
0.00124116
0.000294848
0.00184132
0.00142515
0.000325513
0.00142216
0.0014556
0.000266759
0.00192194
0.00130764
0.0003044
0.00128859
0.00161239
0.000250893
0.00155016
0.00142404
0.00101354
0.000315464
0.00162727
0.0014072
0.000490352
0.00163607
0.0012921
0.00103359
0.000971332
0.00164697
0.00127579
0.000549476
0.00167066
0.00145449
0.000313422
0.000262519
0.00145215
0.00158413
0.000447824
0.00182535
0.00116945
0.000962628
0.00031851
0.00108649
0.00176751
0.000489818
0.00295233
0.00136669
0.00155765
0.00173484
0.0014718
0.0029096
0.00199753
0.00167184
0.00149731
0.000321976
0.000667515
0.00168167
0.00148543
0.000261492
0.001604
0.00154288
0.000485197
0.00152003
0.00183271
0.000186232
0.00208852
0.00135802
0.000552853
0.00138062
0.00124732
0.000206766
0.00206526
0.0021173
0.00180661
0.00134968
4.15915e-05
0.00223007
0.00158407
0.00170413
0.00195343
0.00247582
0.0015885
0.0016162
0.00148406
0.0023504
0.00223869
0.00234761
0.00193112
0.00243272
0.00171353
0.00152422
0.00192802
0.00176076
0.00196448
0.000194252
0.00169632
0.00154446
0.0015639
0.00125675
0.000285652
0.000492915
0.00195479
0.00120539
0.00203581
0.00168359
0.00152746
0.00259542
0.00158668
0.00117571
0.000492456
0.00128245
0.00256149
0.00138637
0.00144088
0.002006
0.000557642
0.00110094
0.00140485
0.00150364
0.00140922
0.00153103
0.000581157
0.000970187
0.00155578
0.00141739
0.000828763
0.00175119
0.00141953
0.000321273
0.00142743
0.00144908
0.00283372
0.00187524
0.0017014
0.00167882
0.00175712
0.00132741
0.000320914
0.00139359
0.00139605
0.0028287
0.00156663
0.00164934
0.00154112
0.00188132
0.00196848
0.00189272
0.0015761
0.00193686
0.00172921
0.00194171
0.00167616
0.00186184
0.00151139
0.00154425
0.00187764
0.00191377
0.00168796
0.00165581
0.00196793
0.00241981
0.00171449
0.00255015
0.001752
0.00293926
0.00118724
0.0030481
0.00137913
0.00237017
0.0016998
0.00173302
0.00240525
0.00285213
0.00144254
0.00133157
0.00215005
0.00166525
0.000974253
0.00144629
0.0016682
0.00173114
0.00161991
0.00107876
0.00140226
0.00164693
0.00119221
0.00170017
0.00135787
0.00155839
0.00148647
0.000649822
0.00125508
0.00122173
0.00109606
0.00166838
0.00136504
0.000680838
0.00211235
0.00112599
0.00120767
0.00147533
0.0017335
0.00112687
0.00225857
0.00154792
0.00086137
0.00151475
0.00170612
0.00110132
0.00217728
0.0013407
0.00128969
0.001599
0.000710365
0.00107584
0.00154999
0.00112022
0.000364506
0.00061911
0.00157394
0.000455249
0.000698492
0.00162512
0.00166801
0.000427279
0.000483992
0.00196834
0.00254803
0.000318033
0.000518668
0.00240517
0.00198052
0.00260652
0.000513621
0.000350428
0.000318329
0.000186092
0.00067957
0.000386478
0.000321105
0.000239931
0.000257238
0.000478531
0.000196636
0.000486591
0.000290328
0.00113098
0.00127635
0.00156199
0.00175543
0.0016228
0.000580271
0.00168694
0.00103704
0.0013158
0.002393
0.00204962
0.00207462
0.00163586
0.00114512
0.00145848
0.00146309
0.00158202
0.00147527
0.00158881
0.000805829
0.00152505
0.00131662
0.00155456
0.000525833
0.000827008
0.00123069
0.00150025
0.00153576
0.000826601
0.000650329
0.00224435
8.19233e-05
0.00223949
0.000511779
0.00202853
0.000132871
0.000497508
0.000320822
0.000666026
0.0019867
0.00225521
0.000135182
0.00201197
0.000668136
0.000133745
0.000507946
0.000515589
0.000306065
0.000318788
0.000595697
0.000780657
0.000623781
0.00052148
0.000323311
0.000627074
0.000537232
0.000261223
0.0003183
0.000306224
4.42237e-05
0.000291857
0.000303063
0.00031593
0.000824883
0.000508416
0.000305473
0.000474565
0.000432001
0.000807317
0.000552072
0.000512022
0.00101195
0.00203643
0.00197676
0.00165228
0.00156708
0.0017498
0.00181343
0.00174735
0.00174464
0.000828241
0.00151232
0.00134091
0.00149935
0.000838362
0.00082856
0.00131565
0.00157007
0.0014893
0.000755633
0.000671329
0.00199758
0.000135329
0.00226
0.000669456
0.00198729
0.000135378
0.000515125
0.000517066
0.000671653
0.00203866
0.00225913
0.000130313
0.00199395
0.000643218
0.000135106
0.00051476
0.000467483
0.000517519
0.000327898
0.000602197
0.000872072
0.00057145
0.00059633
0.000326831
0.000526522
0.000600957
0.000304891
0.000309274
0.000293137
0.000320984
0.000290707
0.000308141
0.000270061
0.000596528
0.0007844
0.000541107
0.000314241
0.000344699
0.000457882
0.000806647
0.000415971
0.000540557
0.000995797
0.00200009
0.0019993
0.00179437
0.00191576
0.00173707
0.00178122
0.00190529
0.00171035
0.000523411
0.0015677
0.00079953
0.00167727
0.000686546
0.000467766
0.000774441
0.00156338
0.00165881
0.000316997
0.000500863
0.00207589
0.000128999
0.00198939
0.000639892
0.00230809
0.00037956
0.000456303
0.000503883
0.00262359
0.0019653
0.00244456
0.000449202
0.000374281
0.000275771
0.000520632
0.00041686
0.000701353
0.00020253
0.000481806
3.96851e-05
0.000385802
0.000385664
0.000761987
0.000246769
5.09922e-05
0.000709279
0.000191389
0.000916792
0.000944994
0.00108781
0.00132809
0.00175807
0.00160197
0.00207751
0.0013366
0.00170099
0.00164734
0.00155724
0.00147062
0.00155991
0.0016961
0.000321221
0.00159793
0.000472147
0.0015719
0.000319758
0.000296411
0.000531871
0.00201049
0.00137247
0.000319825
0.000359251
0.00279042
0.00193483
0.000481049
0.00295249
0.000287414
0.000280005
0.000351259
0.00363042
0.00185567
0.00277148
0.000363622
0.000222669
0.000143646
0.000359488
5.86525e-05
0.00102306
0.0019428
0.0015803
0.0011358
0.00157674
0.000129074
0.000785964
0.000635911
0.00130865
0.00101273
0.00138232
0.0010267
0.00152009
0.00141736
0.000968974
0.00124166
0.000984156
0.00125292
0.000458197
0.00199722
0.000375168
0.00138754
0.000316602
0.000343036
0.000370141
0.00170412
0.00105998
0.0007238
0.000298698
0.00364043
0.00230514
0.0003704
0.00303592
0.00030208
0.00031625
0.000143131
0.000291641
0.00236391
0.00225056