/*--------------------------------*- C++ -*----------------------------------*\
  =========                 |
  \\      /  F ield         | OpenFOAM: The Open Source CFD Toolbox
   \\    /   O peration     | Website:  https://openfoam.org
    \\  /    A nd           | Version:  10
     \\/     M anipulation  |
\*---------------------------------------------------------------------------*/
FoamFile
{
    format      ascii;
    class       volScalarField;
    location    "0.05";
    object      omega;
}
// * * * * * * * * * * * * * * * * * * * * * * * * * * * * * * * * * * * * * //

dimensions      [0 0 -1 0 0 0 0];

internalField   nonuniform List<scalar> 
115408
(
9.79958
9.89629
9.96081
9.82673
9.82148
10.0673
9.83483
9.79183
9.82258
9.8
9.76168
9.78234
9.82954
9.88752
9.96375
9.89196
9.96203
9.88963
9.9976
9.77821
9.77983
9.7921
9.97881
9.84459
9.79339
9.77109
9.7794
9.89747
9.93923
9.93448
9.78013
9.78889
9.98461
9.95637
9.96638
9.89187
12.2236
16.6603
15.7354
11.2789
10.2058
9.93478
10.1389
11.6096
19.6936
11.7667
10.1655
10.0871
9.90327
9.96486
10.0673
10.1657
10.2527
10.1297
10.0831
10.1802
9.92555
10.2385
11.9043
16.2524
14.7556
16.1711
12.0493
10.3447
9.94702
11.3319
16.6339
11.478
11.0196
10.4158
16.4826
11.252
10.2142
11.2707
14.1299
11.3341
10.2264
10.1844
13.5796
11.0925
16.3266
13.4283
11.0178
10.4276
18.7073
10.2218
11.8185
16.358
16.4598
11.924
10.0075
10.0798
10.1499
10.6863
11.2633
10.9759
12.7931
19.4678
10.9764
10.0603
10.5316
14.8664
10.9791
11.5717
14.2634
13.1267
12.2834
11.9614
11.1732
10.296
9.8688
10.4958
15.0151
11.2072
10.6901
12.5256
11.1478
10.7621
11.7629
10.8004
10.1163
9.86018
10.6027
15.1769
11.3755
13.9483
12.0861
15.3174
11.9863
11.4466
11.2325
10.205
9.88906
10.4261
14.9005
13.5056
13.9442
10.5963
10.6091
16.7677
11.998
16.5135
10.7699
11.036
13.7162
11.5748
10.4108
10.2088
10.1933
11.0941
14.0172
11.6252
11.0698
10.6131
10.3381
11.6119
12.4598
13.4067
14.6496
14.3104
13.8465
14.804
13.5951
13.4282
18.9315
22.7819
25.9706
43.5157
15.8465
10.6745
10.1071
10.112
15.1961
12.7802
25.5425
28.8789
27.9817
27.4639
30.2078
13.7832
15.0393
10.1799
9.87602
10.0836
15.3941
12.7141
25.1066
32.053
30.0092
28.8134
31.7227
13.5767
12.0847
10.0833
9.79101
10.0572
15.491
12.5286
25.1835
29.5683
23.5973
24.6417
29.6018
13.3805
12.2663
10.1688
9.828
10.1652
15.1331
12.7269
25.6618
26.9869
22.0965
35.3245
25.0282
38.7695
20.2461
10.2014
15.6228
13.17
26.7842
23.241
15.3575
14.9768
33.4845
17.0547
36.128
31.6904
20.3285
15.5801
32.6865
31.6567
38.1092
35.8628
12.0181
15.1634
13.5042
210.292
24.5882
11.5973
10.2166
9.89534
9.92191
12.7877
11.1845
20.5994
134.245
100.82
22.7904
11.3807
9.91719
9.78155
9.94354
12.9339
11.1644
20.4735
117.798
192.692
194.458
93.3779
22.6736
11.1988
9.90942
9.77096
9.93052
12.9292
11.1525
20.5809
116.888
221.568
646.55
100.892
22.9871
11.2293
9.90534
9.79449
9.95792
13.0802
11.106
21.0213
122.539
141.084
24.1467
11.6419
13.5028
12.6444
59.8745
229.962
29.1588
59.9247
171.933
76.9363
63.2855
82.9703
34.054
15.3539
58.7242
69.3224
10.2513
10.1255
9.94396
9.84425
11.4942
11.5011
48.6123
67.9651
10.2807
9.79195
9.80106
9.82602
11.3128
11.4629
48.921
67.7707
10.323
9.78282
9.76898
9.82615
11.316
11.4462
49.2273
68.326
10.3123
9.79846
9.80292
9.84174
11.3949
11.4306
54.75
67.5198
10.3984
12.4234
12.3597
47.7559
30.205
72.7644
29.9657
30.6653
9.98994
11.3784
11.9926
38.7885
52.9625
11.8281
9.9985
9.83295
9.8893
10.694
10.7977
38.1535
57.7782
11.7005
9.94722
9.77739
9.89076
10.3812
10.6214
37.8734
57.136
11.6709
9.94845
9.77554
9.91757
10.461
10.7475
38.3174
57.4449
11.7205
9.94596
9.7791
9.93516
10.3777
11.7096
34.5083
42.4287
11.7223
10.9605
12.2008
31.4359
14.7859
25.0849
63.6992
111.248
39.6907
41.5688
16.474
15.9766
10.1889
10.0854
13.0609
12.3083
27.9837
31.9335
55.8597
62.4689
78.5475
39.4438
18.9517
10.106
10.0242
13.2459
15.51
33.1621
56.0973
79.4447
81.1493
54.0742
29.3314
18.6807
10.092
10.002
12.6873
14.0704
23.0179
46.9346
67.0287
56.3788
62.3211
32.3963
18.6928
10.0856
10.0126
13.0149
15.4154
26.4607
55.7606
80.3046
66.2992
55.8019
32.2701
18.6623
10.0817
10.0808
12.9325
11.9554
24.596
76.5648
60.083
61.6567
99.2138
30.7672
18.9573
10.1061
10.2056
12.45
12.018
27.1646
21.2645
29.5763
20.2931
13.4954
21.1541
22.5972
27.2496
26.0769
21.5516
40.2997
11.8974
10.7214
10.763
11.1524
15.7419
10.9894
10.0507
9.86036
10.7773
14.8007
12.5349
10.6859
10.5969
10.5948
10.8419
12.5048
10.6775
9.99714
9.83251
10.6255
12.8305
11.7229
10.6273
10.5639
10.5731
10.6251
11.8016
10.6244
9.99257
9.82233
10.5697
12.5564
11.5472
10.6158
10.5543
10.5581
10.6052
12.0204
10.6161
9.9874
9.83221
10.5765
12.7248
11.65
10.6202
10.5675
10.566
10.6757
12.727
10.6667
9.99597
9.86411
10.7419
14.0128
12.0568
10.6548
10.5962
10.6122
10.9251
12.6104
10.9237
10.0225
10.0043
10.9858
16.538
11.7789
11.6609
10.7685
10.8991
11.7235
13.9766
11.6029
10.6114
10.5684
9.7857
9.78016
9.78254
9.77821
9.90213
9.83384
9.79324
9.82656
9.84379
9.78193
9.77729
9.7724
9.77438
9.77644
9.89973
9.80992
9.79439
9.80184
9.82237
9.77444
9.77381
9.77068
9.77168
9.78013
9.90385
9.80712
9.79189
9.80231
9.82111
9.77315
9.77331
9.77049
9.77137
9.77941
9.90363
9.80707
9.79766
9.80687
9.82121
9.77529
9.77399
9.77095
9.77318
9.77594
9.89991
9.80938
9.79034
9.82581
9.84155
9.78036
9.77922
9.77466
9.77872
9.77723
9.90454
9.82993
9.81634
9.90769
10.0215
9.78223
9.77645
9.77483
9.77328
9.82847
9.77994
9.7813
144.965
139.091
61.4304
29.2205
24.8647
62.8659
169.365
29.2074
23.9423
36.0869
180.784
191.915
26.1176
21.3041
32.145
134.318
192.18
112.111
40.4159
29.3922
29.8439
126.84
61.8857
63.8602
33.8124
32.3585
30.9043
30.8487
56.9817
145.965
48.7897
84.7471
37.6128
29.1645
33.1871
168.368
189.815
78.0838
90.5835
33.8654
26.4498
34.12
185.115
81.2022
86.3498
90.8964
31.404
30.9644
30.5917
57.2455
34.9309
74.0456
37.5136
33.6688
32.1047
34.0432
50.0629
86.4059
63.2279
100.57
34.9543
29.9446
34.6594
77.6511
89.5731
95.6852
146.684
35.5624
29.0421
36.2785
85.2385
88.2537
142.877
82.0503
30.6933
31.9861
30.8174
73.5079
37.4738
70.1571
36.8675
28.0586
31.3461
37.9737
57.0797
108.361
96.4116
526.919
29.022
29.6232
24.3236
110.705
148.497
33.8755
27.8429
40.224
137.622
89.6535
100.08
30.8101
30.8121
31.4667
67.258
34.9281
108.185
36.1484
35.2069
27.7943
21.4768
91.5716
144.821
18.8205
16.343
21.5834
38.2473
15.6918
23.0599
95.9663
386.772
40.2808
35.4694
39.8291
101.635
36.5724
216.731
32.8229
20.0309
23.8663
24.0417
176.458
157.71
20.6998
17.0684
21.4331
26.9233
15.2282
20.1951
607.084
196.106
34.0088
276.82
155.486
34.0159
34.7472
34.8544
20.3724
89.5106
70.2147
44.4162
31.5369
27.6901
35.9266
153.535
63.1341
84.7099
23.2816
36.8082
32.9237
77.3257
87.1165
26.5485
38.492
28.5305
156.045
77.1077
37.8779
47.9036
81.0248
90.5061
39.5453
579.771
276.853
68.1736
64.495
61.3642
66.0307
20.5144
108.012
47.7575
124.425
298.248
113.02
48.0868
102.402
69.6932
62.8661
66.7321
32.2303
22.9904
28.5114
64.5472
14.3005
59.367
15.9097
116.732
20.5
68.5808
45.0597
43.152
117.275
192.168
192.682
193.359
109.679
195.06
105.772
69.3581
93.9699
68.8505
66.5623
59.0164
26.7579
22.5813
26.7705
58.4395
16.0636
57.1711
15.0803
68.155
20.572
72.3068
43.1084
43.5018
192.169
123.269
202.036
192.752
205.102
624.02
104.235
310.772
103.055
68.7617
95.7292
69.3821
59.7532
67.8966
26.6032
22.5566
26.5793
57.0812
15.3558
57.4254
16.396
78.0431
20.5573
116.544
44.4789
47.9871
209.988
126.461
115.313
142.208
69.386
138.225
68.6382
65.9337
58.62
26.4608
23.3694
26.7344
57.4388
15.538
63.2404
17.3344
108.635
61.5089
214.114
47.1485
46.8332
185.369
158.69
70.8757
59.7837
60.9062
28.6856
45.2833
29.0634
63.8381
16.6679
246.982
28.0545
158.898
43.0479
22.1187
201.835
510.271
39.0498
75.4224
27.5597
81.0903
139.573
69.2199
80.8095
70.5371
65.1509
56.5631
71.8529
61.7826
67.1184
73.7913
75.4575
84.9895
87.2218
85.6615
33.9964
29.9128
231.034
64.0778
26.7801
86.8563
25.4317
33.5729
287.896
365.302
21.6181
30.2192
55.5135
67.3331
15.5887
47.1765
67.8651
61.501
70.3336
57.3797
16.4337
11.8256
18.6114
11.5203
16.7095
11.4509
19.2058
49.0994
51.2654
44.3655
65.8351
64.3104
72.6706
60.7068
14.2424
68.152
13.2871
59.3239
14.2474
66.7729
13.93
19.8816
11.5498
19.9228
11.2671
19.4411
11.3489
19.97
49.0821
44.8614
48.9066
64.5079
59.7186
62.1874
60.9675
13.5312
67.8748
13.1592
67.4792
14.0069
68.0481
13.5982
20.1059
11.513
19.9328
11.2766
19.8864
11.3025
19.4856
49.1485
47.9224
45.1936
59.6247
65.286
60.8816
61.5307
13.1076
68.2321
13.207
67.8909
13.6042
67.7424
13.5776
19.91
11.5842
18.2083
11.2136
19.9036
11.2278
18.7709
53.2303
45.1602
44.4722
64.9083
65.3704
62.3295
144.025
13.2802
67.7007
13.2849
67.4471
13.5895
83.9316
12.6946
17.0901
11.3556
15.0398
11.0123
17.7006
10.732
13.6633
52.1991
45.4692
29.2073
65.7864
134.154
13.0968
65.8677
12.6108
13.6712
33.9018
24.511
10.7668
12.3386
14.0348
12.9253
23.1374
26.6161
55.9729
63.073
127.297
139.651
90.1185
98.4299
26.2671
612.509
66.0486
32.7248
153.132
327.359
20.3431
111.399
19.5601
51.45
327.807
283.821
84.4645
110.374
37.0708
25.3359
83.3727
69.1747
64.7012
68.7342
55.3793
54.5644
67.3384
84.1899
68.9133
25.2903
39.0667
20.4475
68.438
19.3159
45.4534
60.2502
68.7226
39.245
110.851
68.8069
53.9045
114.522
118.583
54.8742
49.8664
112.451
72.3815
79.261
73.8781
74.6176
37.1236
51.454
30.2007
37.4881
18.1679
47.231
21.5536
47.0966
35.0717
104.506
37.1233
136.375
111.592
122.849
130.669
55.7063
114.307
84.4949
50.2325
87.1414
78.3563
63.3162
53.091
29.5244
54.1135
30.0571
38.0234
21.4693
46.7323
26.7404
44.8122
36.9947
135.768
33.9085
101.817
128.611
55.9181
120.306
76.0151
50.4389
88.237
86.694
78.5808
63.2572
67.2779
54.4116
90.7688
56.6066
26.626
34.7625
16.589
44.2841
18.3225
64.6769
34.2125
105.706
67.7409
52.5395
119.25
102.595
58.8275
50.2222
115.048
77.1894
54.5717
42.4663
72.2851
102.276
54.2503
29.6824
58.7093
29.0715
36.9676
18.3202
66.7871
22.5224
80.1178
75.4421
60.2895
72.9951
64.4772
61.3104
54.5172
64.3848
65.5314
56.8359
49.8956
65.2515
85.4372
101.326
67.9157
36.7834
76.5025
60.4311
24.3085
92.5414
35.5232
21.1497
67.072
72.831
27.5764
94.7343
68.301
72.1677
73.3973
95.2665
57.8895
84.1115
73.1017
80.0773
95.3032
191.094
16.4045
27.4803
29.842
28.5383
196.628
162.86
18.0848
27.0057
18.3607
27.1539
17.841
35.0659
50.7092
19.2283
51.1534
35.6115
38.9153
63.4948
48.3332
36.6705
43.1721
34.5197
39.3145
63.2048
69.3316
36.835
41.1419
33.7893
41.4851
50.7243
60.8693
79.7175
34.8485
38.4876
34.8742
38.4588
49.1719
80.7256
83.5942
33.5663
38.258
32.7675
37.793
75.5165
74.0396
48.8644
33.1369
40.4886
33.2522
38.0518
73.366
46.8506
69.607
34.7037
38.7534
34.8277
38.2696
84.9311
67.3037
58.0417
32.5067
38.0447
31.8575
37.8211
52.2442
56.7067
59.9523
33.0335
37.8381
31.8676
38.4239
69.3817
51.7974
74.387
34.6445
38.0961
34.6022
38.3176
58.0293
80.6037
60.3927
31.7642
37.8844
32.4369
37.6943
60.1705
54.5584
56.6828
31.6625
38.4219
31.7415
38.6282
78.3002
66.6834
54.3016
34.7034
37.7225
34.0245
37.57
73.9806
61.412
49.6297
32.625
37.508
33.2785
37.6307
54.0116
60.7894
48.8097
32.1998
37.9158
32.799
39.8139
56.432
24.5908
93.582
30.1913
37.3177
32.359
40.8233
49.9893
84.5348
88.7427
33.5416
38.0754
35.4511
41.1716
69.2951
76.2292
34.5391
32.9385
40.6258
35.2951
40.3844
25.4379
34.8732
16.7339
67.1386
35.0127
25.3315
35.0391
16.6836
66.8767
16.5993
54.0587
36.0352
25.4364
36.8393
16.5905
54.1732
16.5686
57.0845
35.4881
25.8882
38.1968
16.4602
58.3911
16.7732
67.8469
30.5301
25.681
32.0787
18.7289
64.4994
28.0961
141.771
33.4765
26.8292
34.9768
23.7743
155.512
25.4863
139.705
28.5458
11.2291
23.9594
10.9617
15.5179
131.388
225.185
117.447
147.28
93.5279
24.0953
11.1696
24.4375
10.7592
15.5967
10.7089
15.2323
146.033
110.991
133.371
195.941
223.273
205.73
165.077
49.5629
93.4429
50.1386
24.4344
11.1952
24.3332
10.6978
15.2095
10.7092
15.3179
150.738
120.092
131.831
197.563
193.553
201.361
141.786
195.945
144.033
48.7558
95.9507
49.4852
24.0598
11.2065
24.0166
10.7323
15.4487
10.8269
15.8868
131.115
127.198
248.304
187.843
406.162
48.5141
100.585
101.007
24.3353
11.7848
15.043
10.8716
16.1903
10.8127
14.4769
392.887
177.412
119.777
278.273
120.189
15.0534
33.9275
23.0196
11.5631
12.0922
30.135
22.9833
198.748
38.8812
55.8841
24.985
73.3998
179.442
33.6866
341.985
105.774
65.6359
117.541
136.417
92.5951
81.7135
34.5991
71.1571
72.0184
53.2347
65.1334
62.2414
15.6531
17.9271
80.4915
98.5209
16.1271
15.4183
75.136
49.2831
61.2871
61.6017
14.9285
16.1409
74.4766
97.9428
14.699
14.2923
73.9342
49.0097
61.3677
61.7012
14.6735
15.5969
72.683
97.6323
14.1608
14.1723
73.0027
49.9195
61.3851
61.7656
15.3902
16.1913
77.367
98.1962
15.0487
14.3404
75.2992
58.3004
61.911
64.0589
17.2069
17.0724
84.6607
97.4196
16.1658
15.2401
69.8343
206.928
40.6608
48.1296
206.423
41.9179
93.6652
35.5319
17.912
64.729
211.487
93.4762
27.8878
180.84
68.8614
110.267
153.807
68.826
236.277
203.973
112.033
112.446
39.6763
154.154
60.8968
44.278
117.923
77.9708
22.4232
33.6971
12.2915
12.5315
28.6093
40.7464
11.3704
12.7666
115.21
53.1947
15.0558
24.4524
35.6783
13.5923
12.0665
14.0734
12.5788
31.1512
13.0968
40.7766
55.1706
168.352
35.2329
58.8832
203.086
50.5641
59.5795
350.757
149.508
143.338
15.6125
57.0162
15.16
24.8578
30.0849
22.6648
27.62
14.2705
10.7969
14.506
13.0304
31.4097
11.8751
25.5156
103.367
232.401
38.4815
57.5255
236.09
123.579
48.3234
301.493
209.921
15.0389
57.277
16.7964
22.6334
27.7419
18.0248
27.2539
15.0812
10.7612
14.2519
11.4366
24.6181
11.7906
27.447
105.376
400.313
40.0525
47.8653
238.061
104.812
45.7656
340.943
530.288
16.6458
57.0766
16.5917
31.5721
26.735
17.5859
27.2083
15.0362
11.7482
13.2059
12.9526
25.3146
13.1016
31.1602
67.7625
234.137
35.4826
49.2483
225.651
104.376
55.756
217.25
270.931
15.4358
45.4243
14.0228
24.3222
27.5834
17.6
26.4526
13.7771
11.9448
12.3799
12.5411
29.9952
12.4695
33.572
47.2045
200.329
38.6917
59.1496
166.072
55.9562
58.6013
331.027
110.296
129.159
13.0711
24.7043
26.8348
152.009
157.477
125.245
520.571
152.628
359.624
140.645
18.5
68.2157
27.5106
21.4283
33.3111
33.2527
54.1677
428.018
72.3597
116.54
70.2196
73.8331
125.173
88.4802
90.2138
102.08
50.2581
130.749
31.3207
46.5984
28.5117
31.4315
28.8156
43.9338
85.0877
26.0763
45.7808
26.3571
27.4033
31.4473
43.7476
27.8441
27.3265
15.0179
13.8334
44.563
19.9688
25.5986
29.3905
68.0189
16.4722
48.4863
15.8243
42.0467
28.5948
54.5977
18.8311
36.2479
20.174
32.3339
39.5485
57.8962
22.5073
49.7363
14.9141
39.7615
14.863
38.9906
57.9056
60.3137
75.786
66.6604
45.8777
81.9574
72.4411
26.2469
65.6987
70.7847
28.8663
84.9334
21.6995
27.8569
17.1096
62.4434
16.588
32.7068
34.4076
32.8941
31.9995
49.9807
24.7832
48.9599
14.8636
38.6089
14.8396
38.8482
56.8563
49.4516
67.8117
69.7668
47.593
56.1433
70.3334
63.8986
65.8673
54.7942
83.1444
70.4179
63.7216
83.1435
28.7879
57.738
16.8222
32.8056
31.9257
32.698
34.3384
50.5431
26.3506
26.4301
14.9101
39.3255
15.7479
42.755
16.8107
59.5569
75.0518
19.1164
60.8832
24.2157
21.1656
16.6622
71.9194
69.5718
18.8145
53.8061
23.8114
21.8563
18.8516
85.9076
26.5753
32.0607
39.2465
35.8268
19.9004
27.0426
27.5681
36.0201
16.0774
49.6857
12.0046
17.5277
26.672
25.4605
34.3908
43.5896
19.5664
15.1175
13.7904
28.4804
25.085
31.1262
19.0291
50.2242
10.928
14.2373
48.8042
18.2382
30.3904
38.7275
45.4231
10.9925
13.8035
31.2917
17.686
42.4653
22.2212
11.2536
12.6678
24.4506
37.7188
31.6754
10.3631
12.0434
10.8332
12.6473
25.6228
33.5096
31.5247
10.2078
12.1266
10.5566
12.6517
63.7293
60.6022
98.7166
65.1918
130.865
64.9817
296.92
71.9312
182.114
61.084
64.3951
70.5868
128.094
65.7505
62.5053
116.637
63.5089
73.9396
223.864
138.52
74.9592
62.3882
126.985
55.2516
385.488
51.5178
65.6693
68.9468
66.2765
54.3157
61.4472
60.7566
71.499
240.431
194.231
70.8872
59.3266
64.0013
75.4177
199.344
77.7055
60.6049
57.1472
83.5248
64.5553
53.2831
198.979
47.7792
81.6212
103.923
47.9314
82.4482
182.563
57.5798
69.8593
664.365
129.629
69.2789
58.2917
189.853
51.1285
72.9794
103.519
114.292
89.566
55.3033
172.799
84.4479
70.7009
60.0272
116.641
68.921
73.7416
50.3393
41.4924
24.916
94.9572
44.0669
84.4273
22.4695
55.0566
86.0441
67.1458
120.891
54.9911
60.2946
61.2546
65.2312
61.227
82.417
131.345
93.5056
58.7701
83.3759
73.576
32.0348
15.6695
59.4079
66.1812
18.3393
24.0982
73.0283
54.6495
85.0479
89.7786
79.8785
84.5769
52.7684
80.2172
60.6333
76.3453
192.686
87.17
62.657
77.7022
146.06
61.9369
84.1487
198.483
129.785
62.4293
84.1297
168.292
59.0745
79.0961
84.3588
85.4341
78.2134
59.8484
209.256
60.5174
85.0314
111.761
84.8895
84.9398
60.1319
148.676
56.8006
76.3415
132.868
111.602
56.7952
76.3296
70.4942
56.712
74.7754
110.525
84.8583
56.8087
74.1928
85.5814
56.1678
78.4722
97.1805
85.0885
77.5775
55.9522
65.8956
56.4062
74.6846
86.7366
100.696
74.2413
56.1041
81.7721
23.7303
15.6013
71.7503
49.59
23.8742
15.5481
67.0953
51.904
87.0544
85.2261
84.661
51.8286
86.778
80.062
24.4427
18.6954
48.1919
74.3087
16.1384
33.0377
67.1605
52.2922
86.6425
85.2733
86.3239
86.4042
54.2269
79.7517
56.7438
80.9183
84.7553
78.4576
57.3145
80.7033
87.1919
57.2874
85.533
84.0326
93.0645
57.725
85.4242
86.2153
56.7078
79.7926
79.3155
181.809
80.3422
56.0436
90.4665
57.2307
85.5031
95.2509
189.178
85.1528
57.8089
95.1465
56.3569
79.2379
85.2195
88.3073
56.0927
79.0605
71.9034
56.7717
75.0383
99.1852
87.9713
56.4231
74.9783
88.3706
56.4914
77.3672
89.9817
78.5612
78.703
57.0043
59.4256
56.8073
75.1023
86.7146
80.9736
75.1411
57.2233
75.3491
60.732
61.7465
84.2316
63.5898
87.7689
67.1925
137.152
61.3192
81.6014
119.251
190.602
61.2201
79.8446
127.903
57.832
69.4787
59.7208
174.563
68.3392
57.33
134.437
60.225
77.6286
195.218
253.829
72.2148
61.6339
122.66
61.8429
76.343
187.265
192.074
60.9008
76.3017
201.403
60.1464
82.0891
192.168
194.146
62.0002
81.307
209.635
52.9113
71.4685
195.197
71.1674
66.259
217.82
51.3016
76.361
196.621
78.0471
60.6022
229.317
62.5252
72.22
85.1635
191.998
59.6491
73.1387
144.924
59.7256
75.0073
83.3544
94.8512
59.4443
75.6857
136.667
57.6535
70.4367
197.523
218.638
70.4717
61.2027
155.886
53.2025
89.8242
92.8903
194.001
93.779
54.9725
149.635
34.3622
77.0526
62.6775
55.7661
72.3136
34.9747
48.8657
58.5025
65.95
206.333
133.574
58.3035
68.2616
225.241
62.1563
64.2835
143.692
65.0259
53.9006
306.71
46.7738
75.5847
144.713
73.6799
76.4933
289.452
48.2004
47.3616
54.3597
69.5998
592.279
44.9972
64.355
57.9659
50.5312
41.5683
61.6887
61.038
68.2224
42.6466
46.5046
43.7449
51.7882
41.9688
58.6508
65.5369
52.47
53.9071
51.2023
285.032
57.4141
66.529
61.575
80.8992
208.642
144.74
50.0269
84.4563
46.8779
60.874
66.631
38.8015
63.8103
83.0175
142.698
77.8644
40.4798
67.9525
71.1629
50.0001
139.333
82.6931
73.2085
64.9942
66.4331
66.1437
133.45
93.0398
65.0062
66.4118
106.53
55.067
71.6024
203.363
70.004
70.1131
35.4992
53.3642
57.5819
59.1098
54.9806
77.033
203.957
73.2316
72.5035
35.604
63.2817
60.2283
64.4254
52.6861
52.2976
52.4226
64.818
52.3112
58.1508
52.0939
59.85
53.223
67.6928
66.2092
52.8958
52.959
59.6244
60.5827
51.6656
41.9298
59.3718
39.4762
58.1196
34.6904
80.4034
33.6491
68.964
42.7679
60.153
58.7989
41.6647
35.7725
68.033
71.4777
47.8672
60.1513
92.4782
65.2151
59.6731
57.4786
61.728
85.1871
73.2379
60.3319
80.5394
59.6001
70.1007
61.723
67.6646
128.771
75.6631
81.3369
89.3469
60.5766
75.1173
127.442
47.7675
89.8683
73.8879
65.9256
58.7157
79.7603
45.7926
66.2908
98.9582
63.5382
60.7635
82.064
46.1542
77.3339
77.3717
62.9486
119.741
83.0109
61.1789
83.1833
187.797
128.01
58.555
161.261
118.06
58.2322
56.36
170.705
157.201
49.0036
39.4843
199.633
148.246
41.7072
48.8581
38.714
152.745
187.509
206.392
307.575
127.344
182.203
203.608
258.231
237.258
146.715
292.496
144.646
208.971
79.7859
71.1338
60.3594
53.7732
58.121
134.68
58.4264
86.7027
68.732
41.1859
46.0183
46.1928
57.8147
81.4495
66.8886
64.8706
60.4872
66.7932
60.3958
104.337
61.5686
69.3088
60.0469
145.572
103.952
74.2955
61.8865
60.6255
105.593
122.952
44.3118
552.339
43.4669
150.908
48.6008
403.683
147.453
202.984
120.515
49.4576
43.1283
400.295
48.9187
120.08
402.417
145.448
144.121
214.4
195.641
136.525
123.321
127.778
150.862
194.392
128.703
152.559
215.47
194.312
198.276
582.103
200.879
201.049
195.192
105.666
140.964
199.079
148.198
158.819
107.787
134.48
141.186
93.9625
49.2789
50.6853
57.8531
68.4852
54.4112
52.5832
63.2351
54.5506
105.416
61.404
69.2921
61.8986
104.418
105.368
70.3366
59.3264
62.3284
107.899
119.629
49.191
399.707
43.0363
119.893
49.4459
401.312
144.152
143.849
119.592
48.3763
43.0479
406.57
49.2899
123.774
401.975
144.237
154.635
149.088
193.442
132.609
114.866
141.046
132.033
193.858
151.699
132.68
200.223
194.382
205.764
193.875
206.55
194.849
217.624
126.268
110.456
136.338
196.207
183.291
153.04
107.527
162.058
135.541
95.4119
49.9047
50.113
53.1351
53.07
54.5641
53.5115
52.9852
55.3382
143.513
59.6653
105.854
56.2732
116.865
155.411
108.819
58.8143
56.9605
204.29
148.453
47.595
407.554
48.7579
124.554
43.231
176.353
157.483
148.733
38.5529
49.3426
41.1706
167.836
178.187
219.346
147.038
158.112
127.725
295.748
143.122
617.328
177.15
170.468
110.178
233.245
641.116
116.136
296.186
98.0897
93.1528
84.448
67.8821
53.5204
58.9459
46.7046
68.9905
56.0663
66.5817
61.3301
64.4976
67.9643
57.6954
197.776
57.4337
157.586
58.6022
204.207
210.88
141.262
48.2138
69.8846
193.598
190.267
36.3432
49.5254
157.645
34.1681
207.332
224.428
196.506
26.8735
51.8244
35.3742
187.118
254.965
346.834
189.605
584.16
87.3108
48.9632
59.7354
78.9955
59.553
387.102
106.066
130.211
70.0878
87.2612
68.587
86.1221
62.2054
66.6917
106.918
74.9472
105.308
74.3328
150.673
47.9601
177.322
68.12
195.475
198.105
179.786
55.1309
86.9405
114.688
215.07
26.7867
41.5037
185.23
32.3832
206.771
197.757
347.096
222.471
41.2495
42.2108
207.939
45.2112
105.595
200.188
181.352
255.072
143.26
345.654
86.6608
57.0056
57.4498
55.0756
74.8333
52.797
54.1256
55.0218
46.4103
133.864
71.0314
57.5268
52.5046
94.4475
52.7985
57.2267
54.0788
78.054
187.996
97.444
132.069
95.7983
212.041
142.687
100.816
92.6373
148.079
120.698
61.5368
43.3873
70.83
220.203
126.101
59.3751
59.1806
92.8346
187.758
252.777
227.252
103.207
228.583
180.315
88.5964
184.538
119.906
53.9469
71.833
64.4798
113.844
70.3227
58.5972
124.239
94.6367
110.424
106.631
104.388
110.238
101.9
68.9843
104.612
69.424
56.9913
73.0621
64.7255
218.257
67.8188
86.4167
180.359
216.866
215.5
189.691
192.139
82.1675
188.94
163.804
188.345
165.774
107.555
210.812
204.907
209.528
197.752
105.25
68.0022
56.4983
185.218
45.7955
170.069
79.0784
60.1822
59.834
48.3646
57.0652
111.294
62.6011
42.4231
52.283
106.256
48.003
114.535
73.9146
48.2907
162.24
166.808
200.022
103.432
117.472
72.43
119.425
105.495
69.7729
119.781
15.896
16.8401
97.3324
61.4512
14.4251
13.2758
96.8793
44.3734
14.4505
57.2285
13.9582
14.1976
50.8379
61.3109
61.8239
63.6026
202.203
44.6669
62.3988
239.81
61.1571
44.0259
404.144
62.1434
238.8
102.01
100.371
118.393
102.268
105.343
117.691
101.519
85.5256
118.166
105.598
88.6316
118.221
15.3353
80.3871
16.2401
98.292
15.5671
76.0351
14.1337
14.3081
97.2135
14.7188
64.1644
14.6681
74.2257
14.2553
14.5249
98.0854
66.0107
16.2267
75.9162
14.227
14.8554
49.0582
61.7694
61.4061
61.0634
396.17
45.1956
61.2865
392.864
61.6995
45.1292
604.254
61.1319
391.983
96.1962
102.163
117.626
93.1553
104.467
117.563
102.034
97.9069
117.493
104.799
98.0272
117.711
14.7225
74.2492
15.5985
98.0241
14.3277
74.5127
14.044
14.9764
97.5418
16.4502
74.6006
14.4264
74.585
15.1926
14.9893
97.9633
75.6991
16.1287
75.3052
14.1476
15.0866
49.0026
61.7518
61.4134
61.2839
46.7543
61.5032
390.679
61.3985
45.9306
392.787
61.1946
395.648
87.9523
102.125
117.577
88.0936
104.681
117.619
102.356
97.4
117.444
104.604
97.7444
117.709
14.8283
72.92
15.9806
98.3066
14.3867
74.2498
14.1226
15.0839
97.6683
16.2501
75.9835
14.302
73.6699
15.0515
15.0721
97.9309
75.7783
16.2124
74.9371
14.1878
15.0662
50.4796
62.1765
61.4496
61.1584
390.897
44.0632
61.6728
290.011
62.8532
42.721
239.68
61.475
251.323
97.6211
103.456
118.569
98.003
101.556
118.688
103.853
105.212
118.424
101.898
100.529
118.473
15.5973
78.159
16.9375
97.8371
15.557
75.4129
14.6382
15.0935
98.1511
16.4739
67.7636
14.4327
74.2471
15.3415
14.3572
96.2616
63.4104
14.2698
72.6821
14.1649
13.8346
60.1599
56.0798
64.5569
62.6006
235.586
51.101
63.3286
200.6
46.4271
45.8326
162.491
61.0464
198.879
101.249
101.901
119.555
103.551
15.5888
97.7187
14.099
14.608
14.5909
205.822
47.8011
213.305
39.9481
202.302
56.4801
242.816
258.326
201.444
207.24
41.4518
155.365
30.3285
48.7451
162.762
178.043
205.003
40.6511
37.9322
131.048
50.5325
232.698
150.017
147.684
200.01
208.018
103.091
247.489
168.85
47.5197
94.4984
59.6344
120.901
109.7
122.6
80.5855
80.1455
35.5334
75.8613
60.0135
171.089
39.2516
55.0605
115.002
126.535
508.125
171.978
89.6546
114.692
136.897
289.413
73.8664
59.4669
61.466
301.904
151.034
271.829
165.789
218.47
217.694
65.6702
224.118
73.8354
131.446
44.3303
86.2299
193.925
62.4828
100.618
215.425
49.8246
67.0855
113.839
105.524
132.344
164.703
99.2968
54.5913
58.0852
127.649
165.307
149.792
132.511
51.885
166.929
49.1563
47.7951
176.504
184.183
134.71
140.12
130.671
188.3
609.693
157.414
239.034
131.208
120.633
89.753
103.468
86.8374
120.449
69.8872
84.9719
134.709
96.0728
105.745
72.5068
151.539
67.6148
76.803
161.289
56.3486
312.441
147.891
266.002
59.6169
549.32
67.2245
67.2738
381.574
196.567
72.7633
59.3095
145.151
60.3335
56.3476
40.8168
72.3886
61.7953
65.2188
49.2332
52.5741
62.4881
51.3198
46.7608
77.4785
185.675
62.4214
64.2465
54.6622
41.5949
63.8624
47.4798
208.809
46.425
75.0746
65.6225
77.3333
123.578
121.755
83.3231
74.4451
60.7105
87.2399
96.8242
63.0078
67.4611
146.446
69.3418
104.727
54.2555
69.2658
162.4
97.4393
63.246
117.108
181.554
71.1537
55.5099
35.1981
234.241
65.052
205.126
59.4819
71.118
114.8
133.083
63.3069
143.758
52.6435
69.0861
43.7571
220.887
55.7755
59.8954
66.7309
59.8145
266.979
63.7708
57.666
212.786
49.0464
71.9161
549.49
46.7109
36.1057
68.5409
71.4814
68.481
58.3149
49.3293
91.0141
76.8465
80.3533
47.3789
71.1358
109.462
50.5732
128.921
112.021
103.577
103.346
103.356
116.012
108.916
106.748
60.6707
124.22
120.195
54.4342
45.3913
124.108
112.889
115.484
119.893
49.11
115.168
119.751
119.269
56.9151
57.4329
110.698
59.959
148.661
176.823
127.017
66.6475
54.9125
57.4972
151.907
124.589
74.0638
49.1775
129.714
62.2911
124.522
50.3243
59.7202
155.778
53.8073
124.249
144.563
104.29
38.1697
312.002
47.9201
236.265
45.8683
104.15
126.939
124.368
65.677
62.0516
46.9736
68.5779
63.4737
69.9909
48.3082
46.6714
104.422
63.0576
86.4471
32.825
114.051
104.473
130.187
128.477
33.0587
113.208
114.848
144.683
129.723
132.342
100.984
135.58
56.0994
105.834
57.7408
49.2076
148.623
54.7633
55.9546
55.0748
49.7111
49.3395
110.945
63.6156
114.283
107.992
111.753
106.239
51.9043
95.637
109.391
100.043
93.9543
102.523
209.242
64.7902
52.8158
160.525
78.4794
320.608
360.149
163.428
62.9869
65.3481
71.836
184.209
205.757
55.8531
62.5437
161.918
56.8494
209.23
61.7592
57.453
215.596
56.5926
129.614
125.703
105.148
38.797
235.174
45.2204
237.094
46.1294
97.7446
129.576
115.817
73.2091
46.7236
47.789
104.258
62.6842
71.8817
54.0163
54.3316
68.2302
62.2889
113.994
31.8025
111.773
130.389
154.793
123.471
33.1488
80.6661
110.994
141.786
112.458
122.59
55.2069
152.533
54.7271
50.0976
54.8357
49.3792
139.728
78.4357
55.0407
54.7379
68.4553
49.6114
93.2478
49.3745
103.962
93.7859
88.9672
99.3029
49.3927
105.967
105.851
96.6696
100.518
99.8753
177.723
61.1002
66.984
218.425
64.0682
339.992
277.967
177.203
61.7609
85.8137
64.6705
190.403
210.189
57.0557
55.0484
217.715
56.7286
209.258
59.604
55.3278
153.342
57.3421
130.939
124.099
57.9108
35.5468
201.092
59.4128
216.464
63.984
56.1628
124.405
113.334
62.8722
63.0263
69.8939
65.2439
64.734
60.1988
184.272
77.8905
56.5408
578.19
63.3808
59.189
80.017
63.0888
121.451
106.167
130.611
130.86
345.267
68.6576
42.8244
81.7822
127.331
46.7286
110.122
103.17
125.297
97.3991
96.5773
109.235
103.93
126.612
47.3435
96.0584
110.057
46.6567
102.591
107.454
108.21
123.245
103.786
71.0335
123.986
108.43
45.5521
119.9
62.6092
50.6878
120.846
166.308
173.263
58.4843
185.855
55.1916
208.238
134.226
153.052
153.084
52.5525
97.1309
107.292
130.189
57.5755
57.8798
146.385
54.9347
127.762
54.2575
59.5257
120.528
60.151
65.7088
111.817
177.901
56.4579
279.669
145.589
157.75
35.1763
43.4506
175.344
55.7549
68.3474
44.9789
138.022
53.4663
176.141
253.949
327.763
44.6912
59.5678
201.481
54.4395
40.6382
60.9929
40.9424
145.416
72.4619
53.6702
178.265
268.136
52.1056
59.4171
55.5598
393.077
43.0527
47.3863
62.2306
50.8763
51.3424
59.0024
49.1377
58.4316
49.1173
44.8888
57.4654
37.4218
46.9522
150.028
55.2982
61.0983
42.6047
54.0915
79.1882
327.646
38.8017
61.1557
68.5346
604.784
44.2859
130.91
83.7081
54.0614
238.713
296.869
56.3268
89.7726
53.5877
104.66
49.4856
114.352
143.451
94.8957
93.8114
62.0418
59.4633
115.142
178.86
66.5581
94.525
127.37
66.6564
83.2886
153.682
67.4137
60.2671
266.727
154.66
170.759
34.8323
115.635
62.9304
114.505
83.0285
170.471
116.711
51.3275
178.697
389.137
247.632
102.424
134.342
113.132
143.776
123.695
238.625
113.73
142.876
145.032
60.6574
67.6905
200.649
61.2513
60.5544
127.747
61.4436
70.6224
235.865
139.992
62.9665
145.617
54.9196
71.6367
83.5662
60.4437
64.7295
61.9256
135.82
65.4003
80.7212
67.5037
109.634
61.6446
63.9016
403.59
367.419
113.41
282.43
73.7542
361.694
85.1556
235.677
76.1395
158.732
45.0173
68.1607
163.256
58.7159
157.995
43.9609
72.155
110.815
54.7641
78.5521
59.1643
78.5171
81.0485
132.566
57.9732
58.5927
76.893
63.6548
81.9233
66.034
90.2401
51.8491
57.925
137.299
151.214
138.541
94.5683
223.084
119.892
135.243
104.117
71.6873
64.4699
281.989
97.2649
64.1773
105.259
120.852
56.9566
87.3266
210.989
61.001
106.87
55.5896
76.3402
81.5404
86.8467
71.2771
67.5032
117.922
45.2454
34.1484
76.7181
56.1162
123.111
117.892
82.7067
53.8484
209.055
136.314
71.7094
86.43
70.3431
51.0087
150.29
66.3934
61.5991
78.4723
56.452
76.8954
16.9446
20.8175
67.2164
59.4434
13.5701
50.1506
100.712
93.4401
57.9203
55.1514
294.719
74.9767
53.2347
54.7066
53.4157
269.903
65.2616
59.6863
60.9547
48.5416
73.5394
23.8311
16.5104
66.5836
61.6216
16.8289
49.0201
74.4908
16.7228
20.5973