/*--------------------------------*- C++ -*----------------------------------*\
  =========                 |
  \\      /  F ield         | OpenFOAM: The Open Source CFD Toolbox
   \\    /   O peration     | Website:  https://openfoam.org
    \\  /    A nd           | Version:  10
     \\/     M anipulation  |
\*---------------------------------------------------------------------------*/
FoamFile
{
    format      ascii;
    class       volScalarField;
    location    "0.05";
    object      omega_0;
}
// * * * * * * * * * * * * * * * * * * * * * * * * * * * * * * * * * * * * * //

dimensions      [0 0 -1 0 0 0 0];

internalField   nonuniform List<scalar> 
115408
(
9.80334
9.89843
9.96235
9.83017
9.82528
10.0674
9.83808
9.79582
9.82564
9.80389
9.76623
9.78651
9.83251
9.89062
9.9645
9.89403
9.96348
9.89239
9.99843
9.78233
9.78396
9.79615
9.98031
9.8474
9.7972
9.77547
9.78354
9.89993
9.9408
9.9357
9.78428
9.79298
9.98611
9.95779
9.96802
9.89451
12.1967
16.6295
15.7147
11.2669
10.205
9.93554
10.1373
11.598
19.6591
11.7492
10.1647
10.0863
9.90555
9.96529
10.0672
10.1642
10.2492
10.1293
10.0824
10.1771
9.92708
10.2363
11.8886
16.2575
14.7435
16.1595
12.031
10.3396
9.94822
11.3195
16.6389
11.4781
11.0107
10.4107
16.4744
11.2404
10.2131
11.2557
14.1238
11.3244
10.2275
10.186
13.5447
11.0834
16.3151
13.4218
11.0117
10.427
18.6784
10.2188
11.8028
16.3439
16.4446
11.9062
10.0083
10.0792
10.1487
10.6722
11.237
10.962
12.7658
19.4115
10.9677
10.0615
10.5284
14.8431
10.9606
11.5611
14.2186
13.1133
12.2756
11.9555
11.162
10.291
9.87092
10.4929
14.9888
11.1859
10.6787
12.5108
11.132
10.7532
11.7581
10.7916
10.1172
9.86245
10.5983
15.152
11.3497
13.9373
12.0802
15.2949
11.9677
11.4404
11.2208
10.2018
9.89126
10.424
14.8749
13.4881
13.905
10.587
10.5986
16.7234
11.9806
16.4974
10.7635
11.0258
13.7058
11.565
10.4014
10.2024
10.1873
11.0747
13.9945
11.6128
11.0526
10.6016
10.3297
11.5914
12.4356
13.3799
14.6046
14.2713
13.8217
14.7922
13.5953
13.4321
18.7872
22.5796
25.9405
43.6244
15.797
10.6657
10.1059
10.1132
15.185
12.7432
25.6009
28.8319
27.9384
27.3796
30.2202
13.7734
15.0193
10.1797
9.87877
10.0866
15.3832
12.6774
25.1719
32.0378
29.9518
28.7613
31.738
13.5678
12.0846
10.0845
9.79522
10.0607
15.4771
12.4949
25.2448
29.51
23.5195
24.5531
29.5907
13.3684
12.2629
10.1685
9.83145
10.1642
15.1262
12.6916
25.7019
26.8942
21.9659
35.2962
24.9714
38.8652
20.1993
10.1997
15.6062
13.1337
26.8283
23.1079
15.2632
14.8758
33.4022
17.0547
36.1615
31.5262
20.2122
15.453
32.6919
31.636
38.1223
35.8944
11.9908
15.1325
13.4773
211.228
24.5068
11.5829
10.2131
9.89705
9.92315
12.756
11.1771
20.5586
135.427
101.583
22.6791
11.3632
9.91916
9.78605
9.94456
12.8979
11.1581
20.431
119.033
193.441
195.299
93.6598
22.561
11.1814
9.91152
9.77536
9.9319
12.8943
11.1457
20.5399
118.068
222.581
649.601
101.402
22.8736
11.2119
9.90748
9.79882
9.95811
13.0438
11.0987
20.968
122.754
141.667
24.0456
11.6295
13.4678
12.62
60.2248
231.094
29.1092
60.3676
172.516
76.7269
62.8686
83.1181
33.9173
15.3173
58.817
69.4353
10.2473
10.1245
9.94488
9.84609
11.4658
11.4757
48.7274
68.097
10.2812
9.7961
9.80514
9.82862
11.2864
11.4381
49.0218
67.9556
10.3218
9.78692
9.77333
9.8287
11.2895
11.4223
49.3351
68.4632
10.3138
9.8025
9.80701
9.84365
11.3684
11.4105
54.8862
67.6322
10.3982
12.3842
12.3271
47.8777
30.2009
73.2303
29.7506
30.5333
9.98963
11.3519
11.9619
38.7673
52.9964
11.8093
9.99857
9.8364
9.89167
10.6625
10.7786
38.1563
57.817
11.6818
9.94816
9.78176
9.89325
10.3575
10.605
37.912
57.2527
11.6529
9.94939
9.77996
9.91945
10.4361
10.7289
38.3491
57.4913
11.7021
9.94685
9.78343
9.93636
10.3676
11.6851
34.4792
41.9522
11.7059
10.9467
12.1757
31.4986
14.7561
25.0209
63.4611
110.239
39.5894
41.4943
16.4653
15.9375
10.1883
10.0869
13.0426
12.2774
27.9221
31.9404
55.6055
62.3353
78.9798
39.3256
18.9414
10.106
10.0281
13.235
15.5172
33.1614
55.9337
79.261
80.9965
53.8062
29.1913
18.6714
10.0923
10.0053
12.685
14.0709
22.9999
46.7568
66.833
56.1705
62.1225
32.4054
18.6816
10.086
10.0167
13.0067
15.4227
26.4596
55.5975
80.152
66.1344
55.5388
32.1412
18.6522
10.0822
10.0835
12.9162
11.9303
24.5303
76.7418
59.9161
61.5015
99.5819
30.5957
18.9451
10.1061
10.2066
12.4369
11.9895
27.089
21.2318
29.5837
20.111
13.4771
21.1302
22.4809
27.1471
25.9715
21.5647
40.2193
11.8921
10.7134
10.7557
11.1551
15.7154
10.9796
10.0491
9.86433
10.771
14.768
12.5251
10.6787
10.593
10.5907
10.8374
12.4986
10.672
9.9967
9.83673
10.6207
12.8069
11.7171
10.6227
10.5608
10.57
10.6213
11.7977
10.6195
9.9922
9.82665
10.5658
12.5361
11.5437
10.6116
10.5515
10.5551
10.6016
12.0165
10.6113
9.98724
9.83643
10.5727
12.7017
11.6453
10.6158
10.5644
10.5627
10.6713
12.7223
10.6613
9.99556
9.86807
10.7361
13.9792
12.0523
10.6478
10.5921
10.6077
10.9181
12.5937
10.9148
10.0215
10.0059
10.98
16.4986
11.7644
11.6569
10.7593
10.8901
11.7041
13.9574
11.5844
10.6114
10.57
9.78938
9.78412
9.78637
9.78236
9.90403
9.83719
9.79725
9.82974
9.84587
9.78579
9.78127
9.77664
9.77853
9.78047
9.90169
9.81377
9.79834
9.8055
9.82495
9.77856
9.77795
9.77499
9.77594
9.78396
9.90572
9.81102
9.79592
9.80587
9.82369
9.77731
9.77746
9.77481
9.77565
9.78328
9.90551
9.811
9.80157
9.81038
9.82384
9.77937
9.77811
9.77525
9.77738
9.78
9.90189
9.81325
9.79448
9.82905
9.84374
9.7844
9.78312
9.77881
9.78273
9.78145
9.90644
9.83349
9.82012
9.9097
10.0208
9.78633
9.78056
9.77903
9.77758
9.83162
9.78407
9.78539
145.758
140.058
61.5405
29.1657
24.6825
62.5683
170.063
28.997
23.833
36.0992
181.463
192.713
26.0069
21.2337
31.9694
134.94
192.956
112.63
40.2958
29.3569
29.8202
127.522
62.0111
63.5664
33.6954
32.2281
30.8822
30.7054
56.6745
146.697
48.5737
84.4959
37.5049
29.0947
33.0671
169.084
190.593
77.8084
90.682
33.7434
26.3801
33.992
185.869
81.1211
86.31
91.0332
31.3859
30.9698
30.5778
57.0089
34.8322
74.0011
37.4204
33.5406
32.0917
33.9239
49.8234
86.1048
63.0918
100.525
34.8364
29.8912
34.5447
77.3409
89.6626
95.5607
147.555
35.4404
28.9986
36.1549
85.1857
88.3621
143.883
82.143
30.6781
31.9966
30.8011
73.4675
37.3831
70.1269
36.775
27.93
31.3056
37.8456
56.8941
108.319
96.7794
617.667
28.88
29.4403
24.2142
110.718
148.99
33.7499
27.8582
40.0831
137.914
89.6336
100.122
30.7872
30.7661
31.4351
67.1532
34.8347
108.653
36.0222
35.1872
27.661
21.2951
91.8791
145.047
18.6771
16.2449
21.4306
38.2079
15.5742
22.9458
95.7408
388.187
40.2366
35.4916
39.7745
102.065
36.4276
217.686
32.6384
19.8699
23.7187
23.8736
177.209
158.311
20.5542
16.9583
21.2773
26.7913
15.1243
20.0819
609.154
196.96
33.9698
278.022
155.744
33.8592
34.7618
34.7601
20.292
89.7941
70.2768
44.2686
31.3359
27.6356
35.7613
154.503
63.2267
84.9924
23.1051
36.6887
32.7554
77.4757
87.371
26.4097
38.3837
28.4187
156.68
77.2314
37.7906
47.8789
81.1249
90.7579
39.3474
582.13
278.102
68.4786
64.296
61.7299
66.1442
20.4748
108.756
47.8576
125.368
299.535
113.309
48.0407
102.972
70.0416
62.7705
66.5459
32.2768
22.8769
28.5507
64.6738
14.2925
59.4944
15.8876
117.855
20.4575
68.6758
45.1071
43.1667
118.526
192.923
193.466
194.241
110.295
195.906
106.461
69.7084
94.25
69.1743
66.3438
58.686
26.7858
22.4684
26.7994
58.5601
16.0554
57.3033
15.0725
68.2405
20.5303
72.4188
43.1278
43.5157
192.89
124.41
202.883
193.629
206.004
626.468
104.922
312.263
103.56
69.0885
96.1332
69.708
59.4164
67.625
26.6312
22.443
26.6083
57.2112
15.3482
57.5438
16.3836
78.2123
20.5154
116.808
44.4978
48.1496
210.906
126.693
116.042
142.726
69.732
139.117
68.9668
65.6841
58.5501
26.4926
23.2541
26.7634
57.5606
15.5308
63.3994
17.3214
108.791
61.8343
214.966
47.3117
46.9779
186.252
159.284
71.2139
59.5928
60.8004
28.7319
45.2676
29.0512
63.9891
16.6494
248.49
27.9763
159.413
43.1663
21.9758
202.692
512.784
38.9709
75.4585
27.5214
81.4464
139.963
68.981
81.0409
70.8894
65.107
56.6783
71.9636
61.7765
67.1186
73.7939
75.6921
85.3662
87.0989
85.9609
33.8563
29.8211
231.823
63.9767
26.5975
87.1321
25.3896
33.4497
288.968
367.029
21.4292
30.0207
55.3949
67.1963
15.5798
47.1269
67.6633
61.1338
70.4317
57.502
16.3911
11.7938
18.603
11.4875
16.7072
11.421
19.2083
49.2126
51.2382
44.3997
65.6565
64.1651
72.3186
60.4782
14.206
68.2821
13.2651
59.4442
14.2173
66.9291
13.8995
19.8827
11.5227
19.925
11.2445
19.4346
11.3251
19.9602
49.1847
44.9242
49.0115
64.3875
59.6299
62.0077
60.8084
13.5011
68.0577
13.1349
67.6151
13.9733
68.199
13.5671
20.1088
11.4869
19.9348
11.255
19.8835
11.2799
19.4688
49.2542
48.0267
45.2783
59.536
65.1776
60.7332
61.3705
13.0816
68.3655
13.1824
68.0464
13.5726
67.8924
13.5477
19.9113
11.5591
18.1955
11.1918
19.8885
11.2037
18.7855
53.3692
45.2465
44.4118
64.806
65.1955
62.1477
144.968
13.2523
67.8068
13.2594
67.5786
13.5587
84.0615
12.6717
17.0681
11.3361
15.0143
10.991
17.7057
10.7167
13.6582
52.3026
45.4296
29.2204
65.6022
134.976
13.0736
65.6871
12.5891
13.6497
33.947
24.3836
10.7515
12.329
13.9884
12.8871
22.9814
26.6174
56.2368
63.4894
128.235
140.322
89.9285
98.6818
26.117
613.961
65.8983
32.4849
154.149
328.809
20.1762
111.819
19.3989
51.3431
329.349
285.168
84.5164
110.808
37.0396
25.2643
83.4988
69.1138
64.6241
68.4497
55.3662
54.1454
67.4002
84.1711
69.0882
25.1363
39.083
20.4085
68.2944
19.2606
45.1037
59.9646
68.7236
38.8313
111.409
68.5758
53.8515
115.205
119.379
54.5607
49.9072
113.002
72.352
79.196
73.5382
74.7307
36.9951
51.0854
30.0807
37.5364
18.0689
46.9421
21.5087
46.816
34.604
104.971
36.8311
137.425
112.142
123.742
131.133
55.4043
114.807
84.3226
49.8084
87.2593
77.9937
63.0523
52.763
29.4161
53.6946
29.9133
38.0619
21.4246
46.4498
26.7454
44.6142
36.6733
136.791
33.665
102.179
129.014
55.6184
120.991
76.4343
50.0242
88.3723
87.2685
78.4512
63.0018
66.9846
53.9913
91.3968
56.3612
26.5057
34.7338
16.4975
44.0379
18.2837
64.7614
33.8807
106.397
67.6827
52.3238
120.125
103.266
58.5383
50.1702
116.123
77.0534
54.3244
42.3132
71.958
102.303
53.9644
29.5702
58.369
28.9101
37.1332
18.2882
66.8537
22.4654
80.2602
75.3816
60.1936
73.0606
64.4792
61.0419
54.4928
64.3634
65.5561
56.603
49.8241
65.2525
85.444
101.392
67.6209
36.6544
76.5181
60.9352
24.232
92.9903
35.4652
20.9601
67.0669
72.7849
27.5627
95.0949
68.1865
72.21
73.537
95.6645
57.6931
84.1981
73.2516
80.4485
95.3547
191.764
16.3283
27.2817
29.7287
28.3382
197.342
163.412
17.971
26.826
18.2047
26.9752
17.7297
35.1444
50.5798
19.2369
51.1599
35.666
38.8538
63.273
48.2773
36.6951
43.1033
34.5046
39.2514
63.0644
69.4053
36.8277
41.1867
33.7805
41.3782
50.594
60.7405
79.8399
34.885
38.4267
34.9031
38.4025
49.1338
80.5542
83.7277
33.5524
38.2068
32.7434
37.7344
75.8671
73.8662
48.7293
33.1324
40.4499
33.2448
37.9786
73.4515
46.6639
69.5542
34.7323
38.7193
34.8537
38.2346
84.993
67.1047
58.0855
32.4456
37.9306
31.7923
37.7071
52.0192
56.4521
59.8948
33.0441
37.7761
31.8267
38.3694
69.3257
51.5924
74.5402
34.671
38.0633
34.6284
38.2854
58.0901
80.4636
60.4582
31.6999
37.7731
32.375
37.5838
60.1171
54.2757
56.4595
31.6191
38.3685
31.6997
38.5751
78.4795
66.8016
54.242
34.7255
37.6743
34.0543
37.5183
74.0946
61.2595
49.6317
32.6001
37.4582
33.2599
37.5854
53.8318
60.6573
48.7797
32.1846
37.8469
32.7884
39.7828
56.4236
24.5478
93.9444
30.1949
37.2649
32.4919
40.7516
49.9623
84.7661
88.9911
33.5201
38.0232
35.4389
41.1111
69.3903
76.3942
34.3422
32.9255
40.5409
35.2833
40.4388
25.4949
34.8164
16.6939
67.2822
34.9853
25.3941
34.9979
16.6421
66.9806
16.5549
54.0685
35.9916
25.4976
36.7994
16.5467
54.1692
16.5245
57.0689
35.4353
25.9472
38.157
16.4197
58.4755
16.733
67.8487
30.4269
25.7404
31.9389
18.6936
64.5127
28.0864
142.321
33.3516
26.8632
34.8468
23.7277
156.439
25.4655
140.665
28.3937
11.219
23.8516
10.9389
15.511
131.65
226.111
118.618
148.52
93.9306
23.9892
11.1627
24.3293
10.7402
15.5963
10.6909
15.2315
146.532
112.089
134.283
196.779
224.369
206.762
165.675
49.1684
93.6732
49.767
24.3274
11.1885
24.2262
10.6799
15.2087
10.691
15.3174
151.847
121.379
132.57
198.431
194.35
202.251
142.362
196.807
144.511
48.38
96.2098
49.1031
23.9559
11.1984
23.9164
10.7135
15.4476
10.8065
15.8823
131.869
128.187
250.056
188.648
407.72
48.1364
101.159
101.459
24.2755
11.773
14.9878
10.8519
16.1874
10.7965
14.4688
394.624
178.217
121.348
279.509
121.412
14.9981
33.9995
22.958
11.5383
12.0725
30.1349
22.8685
201.104
38.7375
56.3801
24.9789
73.6812
181.919
33.761
343.477
106.211
65.2368
118.28
135.894
92.0205
81.2817
34.3104
70.9659
72.0639
53.378
65.1861
62.3448
15.6176
17.8308
80.6099
98.5934
16.0465
15.3433
74.5086
49.3856
61.4002
61.7178
14.89
16.0587
74.6131
98.0176
14.6236
14.2181
73.3116
49.1106
61.4835
61.8173
14.6315
15.5215
72.7974
97.7051
14.086
14.0988
72.3795
50.0323
61.5005
61.88
15.3459
16.1061
77.4892
98.2663
14.9687
14.2632
74.6571
58.4051
62.0143
64.1254
17.167
16.9707
84.768
97.4714
16.0813
15.1572
69.2115
208.106
40.8352
48.2593
207.616
42.0814
94.1031
35.6622
17.8632
64.6291
213.17
94.3878
27.8577
182.791
69.0164
110.64
153.996
69.2571
237.207
204.818
112.628
112.544
39.4305
154.706
60.76
44.194
118.104
77.9214
22.2598
33.544
12.2716
12.4726
28.393
40.4758
11.3544
12.7091
116.32
53.1841
14.9892
24.2737
35.7014
13.575
12.033
14.0629
12.58
31.0895
13.0979
40.7169
54.9847
169.254
35.2011
59.1931
204.234
50.3621
59.9077
352.28
150.465
144.114
15.6191
57.0535
15.1565
24.7138
30.0784
22.5498
27.621
14.2623
10.7778
14.5034
13.0159
31.3463
11.8662
25.4701
104.217
233.766
38.5165
57.705
237.629
124.844
48.4743
303.094
210.978
15.035
57.3966
16.7859
22.5847
27.7434
17.9232
27.2757
15.0845
10.7428
14.247
11.4298
24.5697
11.7824
27.4114
106.259
402.092
40.0605
47.9823
239.683
105.703
45.8924
342.797
532.943
16.6349
57.1798
16.5871
31.4623
26.7514
17.4911
27.2287
15.0357
11.7203
13.1869
12.9395
25.2316
13.1031
31.0779
67.7229
235.66
35.5138
49.4106
227.181
105.187
55.9447
218.826
272.09
15.4334
44.9534
14.0314
24.1966
27.5903
17.497
26.4682
13.7657
11.9212
12.354
12.5434
29.9436
12.4717
33.5242
46.9693
201.47
38.6512
59.4795
166.945
55.8174
58.9166
332.433
110.835
129.53
13.0675
24.5823
26.8397
152.829
158.088
125.955
612.968
153.2
361.506
141.271
18.3932
67.8474
27.4384
21.2521
33.4025
33.1236
54.1691
429.875
72.5887
117.129
69.7275
73.529
125.77
88.9702
90.9498
102.629
49.8618
130.063
31.1861
46.3122
28.449
31.2586
28.9562
43.8493
85.0951
25.8414
45.5011
26.1489
27.1771
31.4436
43.6573
27.7294
27.2231
14.9987
13.7854
44.6722
19.9185
25.4655
29.2968
68.0922
16.486
48.5032
15.8283
42.0086
28.5039
54.3442
18.76
36.2759
20.1165
32.3218
39.544
57.9575
22.486
49.7662
14.9128
39.7254
14.8639
38.9552
58.1195
60.295
75.5891
66.8914
45.9058
82.4136
72.5555
26.094
65.8924
70.7621
28.7351
85.2563
21.6057
27.6908
17.0454
62.246
16.5183
32.7049
34.3747
32.8953
31.972
50.0258
24.7588
48.8821
14.8637
38.577
14.8407
38.8141
57.0724
49.5401
67.5871
69.8654
47.6762
56.3588
70.4306
64.2201
66.192
54.5694
83.2752
70.7737
64.0433
83.2741
28.6422
57.4585
16.7598
32.8091
31.9012
32.6968
34.3065
50.4302
26.2885
26.3138
14.9092
39.2908
15.7511
42.7162
16.7056
59.583
74.8685
18.9962
61.0573
24.0774
21.0888
16.5575
72.1427
69.3463
18.6837
53.9345
23.6877
21.7584
18.7855
85.9389
26.5026
32.0506
39.244
35.8498
19.8418
26.9249
27.5026
35.8548
16.091
49.7236
12.0033
17.453
26.5868
25.4397
34.3581
43.6955
19.5186
15.0898
13.7354
28.2782
25.0202
30.9365
19.042
50.2299
10.9231
14.158
48.6839
18.1174
30.2055
38.7558
45.3831
10.9804
13.7275
31.1327
17.5728
42.5518
22.1618
11.2404
12.6146
24.3117
37.7251
31.5144
10.3542
11.9902
10.8185
12.591
25.5005
33.3815
31.4038
10.202
12.0722
10.5496
12.5965
63.5129
60.7312
99.1556
65.3808
131.247
64.9533
298.394
71.8306
183.217
61.2937
64.6138
70.4077
128.858
65.9572
62.7543
116.618
63.5354
74.0206
224.831
138.708
75.0894
62.4203
127.167
55.1588
387.594
51.508
65.4462
69.1171
66.0834
54.103
61.2402
60.812
71.4395
241.556
195.103
70.7813
59.4518
63.9957
75.4476
200.284
77.722
60.551
57.1863
83.0567
64.6133
53.0807
199.96
47.6735
81.7345
104.297
47.8717
82.531
183.45
57.7135
69.7643
667.784
130.221
69.1318
58.5122
190.702
51.1013
73.1891
104.006
114.427
89.6286
55.3343
173.532
84.9439
70.6699
59.7378
117.387
69.2596
73.7231
50.1631
41.3593
24.7953
95.1143
43.9039
84.8565
22.3546
55.0899
86.5664
67.3729
121.641
54.7236
60.5387
61.5689
65.0228
61.2649
82.5593
131.535
93.3177
58.7875
83.5661
73.6135
31.8915
15.5823
59.2973
66.0922
18.242
23.9978
72.9649
54.8571
85.2755
89.5997
80.0202
84.8137
53.0217
80.3057
60.7817
76.3263
193.544
86.9844
62.8133
77.7497
146.699
61.9788
84.3585
199.413
130.348
62.4407
84.3453
168.989
59.2403
79.1786
84.2087
85.6293
78.292
60.0807
210.587
60.5419
85.2102
111.582
84.9978
85.1446
60.1568
149.381
57.0218
76.3472
133.497
111.556
56.9472
76.3652
70.4889
56.7801
75.0168
110.321
84.988
56.8605
74.4273
86.3022
56.3892
78.5482
96.9445
85.6572
77.6499
56.1688
65.7965
56.4833
74.9237
86.8646
101.605
74.4794
56.1821
82.4331
23.6392
15.5062
71.7869
49.3558
23.7833
15.456
67.016
52.1763
87.2651
85.3908
84.4394
52.1037
87.0008
80.2036
24.3389
18.586
47.9252
74.2616
16.0472
32.8901
67.0833
52.5424
86.8714
85.076
86.3073
86.6281
54.4361
79.896
56.9521
81.0064
84.9484
78.2419
57.5265
80.7943
87.395
57.3099
85.7298
84.1289
93.1821
57.7462
85.6299
86.2974
56.9022
79.8563
79.1285
182.471
80.43
56.1618
90.673
57.2476
85.751
95.3713
189.896
85.3603
57.8196
95.379
56.5749
79.3189
85.7969
88.2733
56.3101
79.1414
72.1447
56.8395
75.2791
99.9989
88.0832
56.4902
75.2167
89.1468
56.7132
77.4058
89.9528
78.615
78.7791
57.2242
59.2136
56.8776
75.3321
86.8307
81.169
75.3765
57.2885
75.8732
60.9994
62.049
84.4955
63.2858
88.3057
67.4115
137.759
61.3619
81.7836
120.03
191.349
61.2452
80.0163
128.212
58.0434
69.6222
59.4657
175.503
68.5133
57.4983
134.79
60.2754
77.6297
195.936
255.675
72.2957
61.6585
122.653
61.9888
76.3328
187.971
192.797
61.0472
76.2743
202.316
60.143
82.3765
192.984
195.022
62.0327
81.5455
210.637
52.9588
71.3865
195.929
71.0822
66.4221
218.871
51.1432
76.4227
197.553
78.117
60.5728
230.476
62.7399
72.2086
85.2923
192.859
59.8893
73.1605
145.667
59.7949
75.2452
83.4358
95.0771
59.5248
75.891
137.319
57.8317
70.2948
198.414
219.663
70.3649
61.3468
156.822
53.2042
90.0105
93.2234
194.975
94.0515
54.9875
150.644
34.2348
77.1781
62.3501
55.731
72.5607
34.8031
48.8607
58.419
66.1203
207.207
134.272
58.3954
68.3009
226.148
62.0222
64.0367
144.378
64.9657
53.775
308.037
46.6371
75.5965
145.286
73.7784
76.7381
290.66
47.9061
47.1975
54.1671
69.5661
595.061
44.9197
64.062
57.9859
49.9809
41.2827
61.5271
61.138
68.027
42.5754
46.0099
43.2738
51.8374
41.7848
58.5867
65.4197
52.3063
53.9825
51.0778
286.313
57.4258
65.9229
61.7148
81.0465
209.752
145.515
49.9056
84.5763
46.8343
60.5143
66.2763
38.7358
63.9093
83.0203
143.213
77.8042
40.2856
68.2984
71.1327
49.8461
140.273
83.2251
73.2279
64.7822
66.7567
65.9391
134.23
93.4259
64.8436
66.721
107.11
54.9479
71.5252
203.929
70.0885
69.9626
35.2649
53.2465
57.3558
59.0962
54.863
77.0953
204.522
73.1168
72.4654
35.3678
63.1533
60.2139
64.0806
52.7134
52.0001
52.4381
64.5706
52.1374
58.1048
51.9031
59.8153
53.2533
67.4499
65.9401
52.8967
52.7833
59.5416
60.5472
51.4449
41.878
59.066
39.4739
57.8283
34.4642
80.5769
33.43
69.1734
42.7233
59.7971
58.4956
41.6486
35.5124
67.8642
71.6136
47.5372
59.9792
92.8724
65.5503
59.6199
57.3904
61.5994
85.6242
73.2935
59.9373
80.752
59.8319
69.9722
61.6597
67.5358
129.259
75.831
81.2775
89.7145
60.6498
74.7444
127.793
47.7252
89.9555
73.6908
66.0294
58.5449
79.6969
45.5039
66.3214
98.8577
63.4431
60.2812
82.2898
46.1383
77.3036
77.2544
62.7742
120.969
83.1175
61.0178
83.0806
189.821
128.531
58.523
162.373
118.753
58.1674
56.295
171.66
158.643
49.1605
39.5669
201.527
149.374
41.7792
49.0142
38.773
154.218
189.054
208.743
308.932
128.013
183.268
204.41
260.051
238.224
147.483
293.808
145.816
209.978
79.7948
71.4878
60.2209
53.4345
57.9402
135.627
58.115
87.0027
69.0556
40.9537
45.866
45.8403
57.6454
81.3992
66.7411
64.6996
60.3802
66.6346
60.1887
104.571
61.6092
69.385
60.0793
145.98
104.285
74.3984
61.9942
60.7028
106.091
124.001
44.4093
552.339
43.4796
152.445
48.7176
405.201
148.239
205.394
121.494
49.5637
43.144
401.801
49.0311
121.028
403.927
146.204
144.848
214.985
196.453
137.141
124.492
128.472
152.17
195.171
129.14
153.54
216.598
195.127
199.15
585.65
201.877
201.959
196.139
106.312
141.281
200.022
149.063
159.368
108.557
135
141.832
94.2085
48.8987
50.2973
57.7428
68.179
54.2619
52.4202
63.0183
54.3858
105.907
61.5089
69.3934
62.0059
104.874
105.852
70.4371
59.3642
62.4372
108.072
120.576
49.2937
401.209
43.0537
120.832
49.5522
402.817
144.883
144.575
120.543
48.4934
43.0655
408.093
49.3992
124.849
403.483
144.969
155.684
149.966
194.212
133.166
116.073
142.101
132.777
194.627
152.519
133.227
201.127
195.273
206.71
194.674
207.473
195.745
218.64
126.583
111.174
137.091
197.08
184.048
153.537
108.296
162.671
136.128
95.7205
49.538
49.7267
52.9711
52.7892
54.4121
53.3666
52.7209
55.1808
144.327
59.6843
106.525
56.2095
117.334
156.402
109.529
58.8193
56.8978
206.535
150.104
47.7135
409.075
48.8795
125.629
43.2983
178.062
158.626
150.239
38.6083
49.4804
41.2275
169.506
179.67
221.162
147.671
158.924
128.622
297.012
143.827
620.318
177.882
171.149
110.386
234.432
643.726
116.243
297.684
98.3345
93.5892
84.6743
68.2224
53.2019
58.777
46.3593
68.9723
55.9486
66.334
61.2164
64.3382
67.8106
57.3001
199.51
57.4307
158.263
58.489
206.558
212.552
141.846
48.1669
70.0329
194.625
192.493
36.3733
49.7064
159.346
34.1794
208.401
226.153
198.627
26.893
51.9991
35.3205
189.084
256.232
348.386
190.264
586.504
87.4427
48.9803
59.5659
78.9964
59.4001
388.622
106.478
131.293
70.4147
87.4809
68.4846
86.1157
62.0455
66.5401
106.721
74.7211
105.095
74.0506
151.397
47.8871
178.095
68.0643
196.499
200.278
180.559
54.9785
87.2513
114.913
217.945
26.8116
41.6779
187.154
32.4457
207.91
198.914
348.581
225.245
41.1997
42.3209
209.516
45.3117
105.658
201.202
182.341
257.574
144.042
347.153
86.8849
57.3797
57.3254
54.9813
75.018
53.2383
54.0494
54.8805
46.2811
134.531
70.9535
57.7917
52.5738
94.932
52.5929
57.3271
53.8936
78.353
189.432
98.4924
133.087
96.8246
214.095
143.321
101.434
93.2113
147.765
121.422
61.2719
43.2101
70.715
221.566
126.418
59.5541
58.7908
93.2549
188.135
253.737
228.174
103.916
228.695
180.082
87.957
184.316
119.957
53.9973
72.1703
64.3859
114.492
70.0958
58.66
125.333
94.6597
111.029
107.385
104.431
111.185
102.04
68.887
104.973
69.135
57.246
73.0597
64.5389
219.366
67.8356
86.7776
181.098
218.02
216.501
190.095
192.408
81.9675
189.475
164.053
188.977
165.791
107.68
211.631
206.178
210.281
198.715
105.458
67.6243
56.3026
185.398
45.8301
170.164
79.3919
59.7133
59.8388
48.1008
57.0151
111.862
62.5769
42.3898
52.2311
106.779
47.9341
115.336
74.0957
48.2707
162.164
166.93
201.187
103.275
118.282
72.2753
120.253
105.338
69.6869
120.601
15.8532
16.7544
97.4022
60.9088
14.3528
13.2034
96.935
44.2582
14.3831
56.819
13.8825
14.1265
50.9799
61.4308
61.9255
63.6752
203.384
44.6201
62.5032
241.003
61.2712
43.9673
405.634
62.2396
240.032
101.927
100.224
119.252
102.185
105.173
118.532
101.378
85.4709
119
105.427
88.5958
119.064
15.2949
80.5027
16.1554
98.3697
15.4851
75.3894
14.0602
14.2495
97.2896
14.6446
64.2117
14.5845
73.6132
14.1727
14.4672
98.1544
66.0615
16.1357
75.2743
14.1513
14.7696
49.1622
61.886
61.5184
61.1703
397.394
45.2797
61.3974
394.123
61.8074
45.2125
604.254
61.2398
393.253
96.1907
102.009
118.472
93.1317
104.304
118.412
101.881
97.8643
118.325
104.636
97.9779
118.556
14.6788
74.3765
15.5227
98.0984
14.2523
73.8848
13.9716
14.9326
97.6198
16.3575
74.7151
14.3468
73.9423
15.1127
14.9437
98.0403
75.8233
16.0448
74.6561
14.0732
15.006
49.1068
61.8664
61.5281
61.3923
46.8354
61.612
392.136
61.5075
46.0177
394.036
61.3038
397.036
87.9456
101.974
118.426
88.0845
104.516
118.47
102.204
97.3409
118.285
104.438
97.6864
118.555
14.7844
73.0362
15.9
98.3779
14.3108
73.6213
14.0482
15.0434
97.7483
16.1645
76.1114
14.2258
73.0266
14.9723
15.027
98.0053
75.9022
16.1243
74.2887
14.11
14.9854
50.6048
62.2801
61.5639
61.2705
392.138
44.0946
61.7773
291.638
62.9468
42.7133
240.859
61.5898
252.591
97.5461
103.293
119.426
97.9258
101.395
119.548
103.685
105.277
119.27
101.72
100.397
119.32
15.5504
78.2779
16.8392
97.8977
15.4755
74.7771
14.5544
15.0399
98.2206
16.3808
67.6473
14.3538
73.608
15.2582
14.2933
96.342
63.3051
14.1912
72.062
14.0791
13.7498
60.2528
56.1657
64.6213
62.708
236.836
51.0659
63.4119
201.758
46.5573
45.8015
163.183
61.1629
200.003
101.099
101.737
120.438
103.356
15.5247
97.7701
14.0207
14.5268
14.5121
206.914
47.9291
214.914
39.9462
203.364
56.5781
245.993
260.643
202.515
208.401
41.6015
155.948
30.3165
48.9205
164.936
178.838
206.088
40.697
38.0464
132.504
50.6277
235.745
151.789
148.845
201.066
209.551
103.438
250.55
169.591
47.339
95.043
59.5252
121.081
110.47
123.448
79.9328
80.4076
35.5686
75.9175
60.4936
173.014
39.0641
54.9047
115.73
127.382
510.278
172.728
90.5475
115.498
137.675
290.657
74.0008
59.1623
61.4491
303.348
151.806
272.922
166.605
218.518
218.559
65.1716
225.095
73.877
131.198
44.2202
86.0556
194.511
62.477
101.814
215.867
49.6185
66.5551
113.654
106.905
133.053
164.834
99.4632
54.4502
57.9636
129.06
165.557
150.867
132.794
51.6611
167.908
49.124
47.781
176.869
185.128
135.265
140.689
131.98
189.751
612.039
158.621
241.065
131.946
121.082
89.8721
103.216
87.3416
120.872
70.1657
85.3065
135.705
96.357
105.986
72.6995
152.004
67.7937
76.541
161.992
56.286
313.734
148.583
267.097
59.4881
551.907
66.9166
67.2121
383.271
197.188
72.8591
59.163
146.42
60.1537
55.9663
40.5822
72.6443
61.109
64.8156
49.2302
52.5747
62.3951
51.2125
46.7412
77.3711
186.5
62.1897
63.8624
54.7767
41.5735
63.6743
47.3134
209.734
46.0929
74.9713
65.478
77.6445
124.49
122.36
83.2867
74.2499
60.7941
87.6165
97.184
62.7065
67.2648
147.034
69.6436
105.254
54.1372
69.5313
163.052
97.7058
63.5384
117.757
182.338
71.1164
55.2986
35.2078
235.507
65.3771
206.336
59.8086
71.043
115.623
134.117
63.3477
144.38
53.1152
69.1556
43.6318
221.939
56.064
59.8207
66.7304
60.1232
268.247
63.6589
57.9467
213.597
48.7964
71.7244
552.165
46.5273
35.8914
68.1392
71.8681
68.4248
58.154
49.2481
91.1834
77.0732
80.8131
47.3061
71.1879
110.184
50.4738
130.176
112.726
104.558
103.919
104.003
116.9
109.537
107.407
60.8855
125.031
121.459
54.3289
44.9414
125.278
113.483
116.562
120.996
48.6782
115.911
120.737
119.82
56.5845
57.5028
110.982
59.8558
149.343
177.676
127.622
66.2706
54.8007
57.3702
152.773
125.149
74.3023
48.6296
130.905
62.2699
125.104
49.7935
59.8104
156.271
53.6916
124.957
145.909
105.171
38.2014
313.549
48.0398
237.812
45.9871
105.049
127.722
124.866
65.4807
62.3148
46.7653
68.505
63.7156
69.8453
48.0744
46.4825
105.093
63.3193
86.8786
32.5377
115.068
105.319
131.152
129.736
32.7741
114.215
115.844
145.864
130.917
133.722
101.501
136.444
55.7193
106.343
57.5879
48.7685
149.587
54.4682
55.5904
54.7834
49.3429
48.9149
111.892
63.6178
115.038
108.554
112.271
106.661
51.519
96.3356
110.156
100.3
94.4437
102.948
210.661
64.4475
52.6907
161.325
78.5523
322.337
362.11
164.213
62.652
65.2757
71.8337
185.106
207.253
55.9948
62.1601
162.501
57.0133
210.776
61.3972
57.6635
217.247
56.765
130.424
126.201
106.033
38.8254
236.7
45.324
238.655
46.2624
98.4708
130.416
116.362
73.0955
46.5455
47.5448
104.911
62.9147
71.76
53.8372
54.3598
68.1303
62.5282
114.998
31.4771
112.546
131.592
156.365
124.563
32.8127
80.9535
111.763
143
113.647
123.668
54.9223
153.399
54.4293
49.7306
54.5333
49.0069
140.443
78.0301
54.7441
54.4439
67.9394
49.2334
93.901
48.9589
104.805
94.3581
89.1102
99.7873
48.979
106.681
106.719
96.8954
100.956
100.334
178.565
60.7829
66.9135
219.569
63.9939
341.832
279.262
178.041
61.4346
85.9716
64.5917
191.527
211.72
57.2265
54.6384
219.313
56.9332
210.766
59.2599
55.4731
153.981
57.5375
132.106
124.787
57.7337
35.6205
202.214
59.7486
217.805
64.3295
55.981
125.489
114.295
62.7234
63.2751
69.8827
65.0518
64.9952
60.0389
185.088
78.1769
56.8238
581.085
63.3899
59.4733
80.3147
62.6226
122.821
107.114
131.464
132.001
346.734
68.6538
42.6863
82.2842
128.435
46.7149
111.123
103.481
125.905
98.0587
96.7471
110.027
104.602
127.494
47.3458
96.691
110.877
46.5955
103.256
108.211
108.834
124.7
104.279
70.772
124.981
109.043
45.7114
121.294
62.1417
50.785
121.781
167.104
174.792
58.3714
186.937
55.1177
209.69
134.613
153.719
154.216
52.4454
97.491
107.505
130.626
57.6587
57.4574
146.996
54.8233
128.261
53.7953
59.5634
121.193
60.1254
65.6684
112.792
178.66
56.3408
280.731
146.243
158.441
34.9943
43.3289
176.147
56.0525
68.2361
44.7638
138.549
53.9318
176.878
255.038
329.149
44.5272
59.2754
202.226
54.3113
40.4898
60.8973
40.7644
146.076
72.4185
53.4462
179.053
269.274
51.8802
59.1072
55.3021
394.859
42.8383
47.3948
61.9486
50.8979
51.2709
58.9733
48.9499
57.8892
49.0123
44.8814
57.3384
37.1604
46.8124
150.647
55.6014
60.7773
42.6421
54.0696
79.4299
328.968
38.4157
60.7064
68.8639
607.069
44.2871
131.589
83.7305
53.9074
239.755
298.221
55.9554
90.2026
53.5144
104.906
49.4114
115.024
144.225
95.411
94.1672
62.0134
59.2438
115.569
179.613
66.8467
94.8725
128.131
66.415
83.7913
154.344
67.7154
60.1567
267.75
155.252
172.37
34.6185
116.311
62.8035
115.128
83.2141
171.877
117.481
51.1547
179.482
391.329
249.361
103.55
135.394
113.488
144.516
124.422
239.715
114.23
143.266
146.048
60.6989
67.8416
201.553
61.0299
60.6921
127.661
61.3246
70.5784
236.836
139.27
62.9382
146.512
54.5797
71.8979
84.1072
60.1884
64.7004
62.0828
136.271
65.2462
80.8019
67.749
109.458
61.4584
63.9467
405.66
369.366
113.503
283.821
73.8536
363.67
85.5948
236.71
76.2092
159.261
44.7846
68.1929
162.541
58.7334
158.535
43.6731
72.1732
110.545
54.7025
78.2312
58.8246
78.5036
81.4997
132.598
58.0323
58.746
76.4772
63.6476
82.0497
66.2049
90.3425
51.7217
57.9139
137.548
151.745
139.239
95.3077
224.077
121.069
136.002
104.514
71.8979
64.4931
283.226
96.9252
64.3462
105.654
121.087
56.9261
87.7731
211.968
60.99
107.506
55.2845
76.327
82.0466
86.7678
71.3626
67.6962
118.878
45.0955
33.9999
77.103
55.9643
123.972
118.501
83.1196
53.7686
209.992
136.169
71.7162
86.2226
70.3589
50.8547
150.249
66.4398
61.3556
78.6925
56.4342
77.0182
16.871
20.6602
67.1613
59.4317
13.5093
49.8016
101.24
93.9666
57.9409
55.1677
296.048
74.9958
52.5945
54.759
53.2279
271.299
65.3456
59.6522
61.1184
48.4669
73.3747
23.7048
16.4232
66.7891
61.1966
16.724
48.9228
74.6839