/*--------------------------------*- C++ -*----------------------------------*\
  =========                 |
  \\      /  F ield         | OpenFOAM: The Open Source CFD Toolbox
   \\    /   O peration     | Website:  https://openfoam.org
    \\  /    A nd           | Version:  10
     \\/     M anipulation  |
\*---------------------------------------------------------------------------*/
FoamFile
{
    format      ascii;
    class       volScalarField;
    location    "0.05";
    object      p;
}
// * * * * * * * * * * * * * * * * * * * * * * * * * * * * * * * * * * * * * //

dimensions      [0 2 -2 0 0 0 0];

internalField   nonuniform List<scalar> 
115408
(
108.777
108.23
108.963
108.665
108.191
108.691
108.275
108.917
108.746
108.183
108.779
108.258
108.892
108.733
108.158
108.718
108.337
108.937
108.75
108.26
108.703
108.319
108.888
108.596
108.269
108.622
108.339
108.845
108.639
108.32
108.625
108.346
108.823
108.457
108.433
108.713
108.037
107.923
108.108
108.059
109.215
107.87
108.718
108.489
107.939
108.297
108.851
108.106
109.338
107.816
108.759
108.163
108.501
108.384
108.691
108.198
109.147
107.687
108.949
107.285
107.643
107.796
108.547
108.215
109.293
108.268
107.684
107.687
107.837
107.87
107.909
108.071
109.197
108.149
107.819
107.84
107.957
107.968
108.116
108.424
107.879
108.005
108.001
108.027
108.043
108.54
108.588
108.004
108.163
108.568
108.403
108.447
108.519
108.075
108.005
108.113
107.753
107.941
107.538
109.94
109.012
107.255
107.476
107.545
107.833
107.571
107.776
107.895
108.892
107.598
109.941
109.116
107.213
107.381
107.482
107.565
107.583
107.81
107.944
108.752
107.643
109.896
109.059
107.193
107.547
107.641
107.748
107.87
107.799
107.991
108.92
107.562
110.03
108.96
107.386
107.688
107.863
108.101
108.099
108.059
107.75
107.789
107.433
108.768
107.619
107.829
107.943
108.186
108.269
108.286
107.861
107.828
107.873
108.178
108.211
108.17
107.659
107.822
108.081
108.137
107.842
107.871
107.957
108.018
108.271
108.34
108.021
108.079
108.372
107.924
109.529
107.619
108.262
108.142
107.672
107.746
107.905
107.887
108.019
108.4
107.982
107.601
110.069
107.735
108.265
108.119
107.619
107.714
107.814
107.88
108.02
108.381
107.927
107.659
109.863
107.573
108.274
108.14
107.672
107.738
107.885
107.987
108.051
108.393
107.98
107.578
110.082
107.846
108.226
108.187
107.775
107.955
108.276
108.273
108.065
108.209
108.302
107.873
108.166
108.222
107.751
108.217
108.407
108.486
108.424
108.368
107.752
108.17
108.456
108.518
107.835
107.826
108.136
108.163
108.201
108.196
108.232
108.551
108.617
108.465
107.858
109.773
107.535
108.676
108.47
108.306
108.42
108.596
108.685
108.521
107.736
110.105
107.37
108.693
108.468
108.284
108.458
108.423
108.507
108.658
108.702
108.528
107.703
109.996
107.39
108.692
108.476
108.293
108.45
108.433
108.503
108.625
108.703
108.537
107.698
110.116
107.551
108.656
108.48
108.312
108.399
108.539
108.634
108.493
108.508
108.459
108.359
108.379
108.27
108.326
108.435
108.386
108.5
108.65
108.566
108.534
108.479
108.715
108.522
107.966
109.601
107.592
108.807
108.561
108.381
108.684
108.531
107.766
110.133
107.487
108.829
108.562
108.374
108.675
108.542
107.801
109.911
107.424
108.829
108.575
108.377
108.696
108.558
107.775
110.122
107.676
108.795
108.586
108.439
108.731
108.581
108.61
108.494
108.423
108.341
108.454
108.58
108.626
107.467
108.789
108.618
108.483
108.627
108.495
107.745
110.031
107.232
108.845
108.619
108.43
108.648
108.478
107.531
110.267
107.278
108.858
108.597
108.454
108.655
108.487
107.59
110.206
107.194
108.851
108.617
108.428
108.657
108.507
107.542
110.294
107.41
108.806
108.618
108.477
108.616
108.553
108.678
108.606
108.439
108.562
108.532
108.561
108.547
108.354
108.47
108.623
108.298
107.62
107.489
108.897
108.539
108.45
108.443
108.548
108.621
108.62
108.619
108.396
107.482
107.569
108.972
108.696
108.421
108.431
108.579
108.648
108.657
108.479
108.315
107.329
107.442
108.985
108.699
108.416
108.423
108.599
108.657
108.69
108.482
108.316
107.404
107.491
108.968
108.699
108.449
108.429
108.577
108.658
108.654
108.476
108.331
107.348
107.583
108.888
108.545
108.485
108.456
108.53
108.611
108.644
108.595
108.439
107.542
107.643
108.784
108.458
108.409
108.367
108.498
108.618
108.439
108.632
108.437
108.478
108.545
108.577
108.526
108.168
108.403
108.295
108.449
108.454
109.208
107.326
106.719
109.574
107.935
108.355
108.28
108.423
108.364
108.526
108.413
109.204
107.254
106.606
109.506
108.012
108.377
108.274
108.406
108.357
108.497
108.424
109.215
107.212
106.633
109.541
108.033
108.375
108.27
108.395
108.351
108.495
108.418
109.198
107.256
106.608
109.492
108.016
108.376
108.287
108.413
108.376
108.485
108.444
109.21
107.218
106.766
109.499
107.921
108.347
108.297
108.413
108.39
108.496
108.419
109.183
107.369
106.744
109.47
107.893
108.335
108.231
108.364
108.357
108.063
108.391
108.251
108.308
108.286
107.887
109.024
108.018
109.157
107.769
109.588
106.781
109.496
107.38
109.134
107.924
108.971
108.056
109.103
107.815
109.503
106.842
109.53
107.433
109.133
107.95
108.954
108.072
109.105
107.793
109.6
106.747
109.533
107.408
109.111
107.969
108.922
108.105
109.066
107.844
109.52
106.788
109.523
107.442
109.088
108.004
108.905
108.145
109.065
107.859
109.557
106.819
109.455
107.447
109.05
108.03
108.87
108.182
109.025
107.922
109.479
106.894
109.412
107.557
109.024
108.076
108.839
108.24
108.904
108.106
108.81
108.531
108.553
108.581
107.798
108.608
108.485
108.4
108.416
108.048
108.586
108.443
108.486
108.612
107.942
108.669
108.546
108.519
108.547
108.687
108.056
108.825
108.578
108.574
108.617
108.494
108.592
107.717
108.617
108.491
108.403
108.381
108.389
108.645
107.829
108.635
108.452
108.489
108.438
108.485
108.69
107.893
108.727
108.522
108.551
108.525
108.535
108.882
108.024
108.94
108.61
108.499
108.598
108.502
108.59
107.731
108.585
108.378
108.387
108.42
108.398
108.672
107.811
108.675
108.438
108.484
108.446
108.479
108.741
107.919
108.729
108.523
108.537
108.52
108.547
108.953
108.031
108.929
108.594
108.503
108.614
108.506
108.536
107.788
108.48
108.445
108.397
108.524
108.407
108.673
108.213
108.611
108.443
108.477
108.691
108.039
108.656
108.504
108.555
108.562
108.929
108.063
108.808
108.624
108.512
108.604
108.516
108.445
108.184
108.36
108.487
108.407
108.493
108.387
108.379
108.644
108.47
108.545
108.559
108.531
108.755
108.192
108.627
108.591
108.474
108.529
108.484
108.35
108.227
108.374
108.4
108.477
108.392
108.425
108.396
108.534
108.505
108.541
108.55
108.541
108.41
108.522
108.542
108.373
107.799
108.448
108.447
108.347
108.439
108.324
108.379
107.852
108.499
108.491
108.483
108.468
108.388
108.276
108.523
108.626
108.54
108.503
108.337
108.534
108.546
108.704
108.45
108.423
108.43
108.399
108.29
108.525
108.531
108.61
108.583
108.558
108.652
108.305
108.336
108.416
108.414
108.519
108.53
108.592
108.589
108.599
108.576
108.651
108.544
108.693
108.625
108.652
108.515
108.605
108.557
108.326
108.287
108.304
108.42
108.428
108.458
108.385
108.422
108.481
108.535
108.508
108.557
108.597
108.656
108.61
108.651
108.626
108.633
108.703
108.654
108.604
108.566
108.617
108.583
108.304
108.29
108.304
108.428
108.429
108.387
108.477
108.392
108.48
108.432
108.469
108.556
108.511
108.553
108.611
108.632
108.612
108.626
108.659
108.658
108.702
108.65
108.618
108.581
108.619
108.573
108.287
108.301
108.349
108.425
108.421
108.394
108.414
108.547
108.534
108.615
108.538
108.627
108.668
108.605
108.663
108.678
108.625
108.62
108.577
108.662
108.556
108.348
108.35
108.365
108.417
108.422
108.387
108.542
108.637
108.61
108.616
108.633
108.576
108.585
108.659
108.549
108.37
108.434
108.39
108.426
108.469
108.417
108.568
108.3
108.319
108.382
108.415
108.389
108.4
108.369
108.434
108.495
108.5
108.639
108.593
108.713
108.323
108.392
108.436
108.469
108.472
108.457
108.389
108.548
108.524
108.363
108.562
108.172
108.544
108.533
108.599
108.511
108.484
108.254
108.443
108.273
108.44
108.621
108.627
108.7
108.622
108.309
108.574
108.253
108.5
108.29
108.426
108.25
108.392
108.42
108.401
108.616
108.582
108.652
108.594
108.538
108.684
108.583
108.628
108.578
108.708
108.606
108.246
108.596
108.24
108.479
108.247
108.452
108.236
108.375
108.397
108.395
108.571
108.587
108.574
108.568
108.599
108.674
108.617
108.726
108.623
108.723
108.633
108.238
108.607
108.242
108.461
108.237
108.466
108.239
108.378
108.394
108.406
108.584
108.58
108.568
108.582
108.618
108.692
108.612
108.725
108.63
108.728
108.625
108.243
108.636
108.267
108.461
108.243
108.479
108.246
108.433
108.404
108.402
108.589
108.631
108.578
108.681
108.615
108.734
108.594
108.727
108.618
108.617
108.609
108.281
108.621
108.319
108.453
108.255
108.468
108.305
108.424
108.4
108.423
108.643
108.665
108.581
108.604
108.593
108.316
108.418
108.295
108.47
108.323
108.384
108.348
108.457
108.427
108.425
108.391
108.417
108.546
108.455
108.386
108.327
108.471
108.549
108.34
108.599
108.472
108.374
108.425
108.547
108.443
108.533
108.557
108.47
108.526
108.501
108.3
108.395
108.412
108.369
108.575
108.475
108.638
108.548
108.577
108.588
108.549
108.439
108.297
108.408
108.368
108.314
108.408
108.37
108.392
108.445
108.563
108.481
108.56
108.544
108.627
108.563
108.656
108.57
108.606
108.642
108.604
108.543
108.645
108.555
108.451
108.301
108.308
108.36
108.289
108.375
108.436
108.394
108.413
108.543
108.551
108.497
108.533
108.665
108.577
108.597
108.583
108.647
108.657
108.656
108.593
108.663
108.586
108.424
108.361
108.287
108.344
108.307
108.397
108.415
108.37
108.423
108.499
108.533
108.521
108.522
108.596
108.582
108.588
108.58
108.657
108.658
108.663
108.682
108.662
108.596
108.471
108.32
108.298
108.318
108.305
108.375
108.428
108.402
108.37
108.549
108.524
108.54
108.465
108.618
108.579
108.602
108.571
108.656
108.679
108.657
108.577
108.645
108.557
108.441
108.321
108.329
108.247
108.35
108.405
108.361
108.323
108.42
108.549
108.47
108.526
108.485
108.614
108.556
108.583
108.537
108.675
108.63
108.517
108.571
108.446
108.248
108.311
108.189
108.26
108.34
108.449
108.326
108.42
108.527
108.502
108.391
108.503
108.559
108.526
108.485
108.532
108.596
108.483
108.247
108.306
108.153
108.336
108.531
108.565
108.432
108.386
108.371
108.443
108.501
108.406
108.428
108.227
108.334
107.812
108.391
108.569
108.494
107.766
108.562
107.862
108.539
108.627
108.542
107.854
108.7
107.933
108.626
108.417
108.447
108.352
107.686
108.474
107.742
108.461
108.488
108.573
108.457
107.827
108.582
107.859
108.587
108.579
108.656
108.555
107.924
108.709
107.947
108.697
108.342
108.426
108.339
107.699
108.506
107.706
108.516
108.477
108.599
108.469
107.808
108.639
107.797
108.68
108.55
108.659
108.536
107.945
108.728
107.925
108.742
108.335
108.424
108.339
107.697
108.52
107.698
108.507
108.471
108.574
108.463
107.796
108.689
107.807
108.659
108.537
108.662
108.542
107.924
108.752
107.937
108.747
108.349
108.436
108.383
107.73
108.479
107.74
108.464
108.458
108.525
108.47
107.858
108.61
107.854
108.592
108.545
108.617
108.587
107.953
108.703
107.938
108.707
108.39
108.371
108.39
107.823
108.432
107.635
108.406
108.472
108.549
108.476
107.885
108.546
107.819
108.574
108.575
108.608
108.469
107.96
108.64
107.925
108.717
107.706
108.545
108.413
108.31
108.51
107.629
108.494
108.406
108.311
108.401
108.328
108.476
107.645
108.483
108.4
108.326
108.403
108.327
108.52
107.722
108.5
108.401
108.321
108.424
108.285
108.493
107.738
108.352
108.433
108.287
108.53
108.359
108.289
107.81
108.322
108.508
108.362
108.515
108.384
108.253
108.454
108.318
108.425
108.251
108.418
108.385
108.527
108.541
108.553
108.314
108.483
108.305
108.419
108.252
108.417
108.251
108.331
108.451
108.331
108.431
108.432
108.516
108.44
108.552
108.634
108.562
108.302
108.497
108.306
108.409
108.249
108.426
108.25
108.319
108.461
108.324
108.395
108.423
108.396
108.451
108.506
108.432
108.57
108.66
108.571
108.307
108.526
108.325
108.411
108.248
108.46
108.253
108.328
108.409
108.349
108.434
108.434
108.565
108.596
108.557
108.328
108.53
108.35
108.434
108.263
108.498
108.297
108.381
108.383
108.57
108.537
108.546
108.332
108.299
108.342
108.388
108.301
108.441
108.302
108.405
108.308
108.32
108.445
108.331
108.397
108.452
108.416
108.555
108.468
108.411
108.557
108.539
108.609
108.341
108.391
108.365
108.43
108.505
108.492
108.553
108.505
108.606
108.595
108.516
108.517
108.598
108.371
108.482
108.482
108.579
108.546
108.624
108.605
108.545
108.54
108.606
108.376
108.486
108.488
108.589
108.572
108.649
108.614
108.564
108.555
108.61
108.406
108.488
108.489
108.575
108.562
108.633
108.615
108.549
108.546
108.616
108.467
108.485
108.49
108.556
108.537
108.637
108.621
108.527
108.527
108.597
108.465
108.392
108.436
108.474
108.403
108.388
108.103
108.327
108.425
108.448
108.492
108.452
108.394
108.456
108.238
108.309
108.415
108.68
108.473
108.577
108.436
108.515
108.496
108.641
108.501
108.627
108.413
108.327
108.488
108.426
108.128
108.528
108.388
108.286
108.223
108.582
108.646
108.568
108.555
108.593
108.292
108.667
108.276
108.389
108.268
108.346
108.289
108.302
108.403
108.47
108.421
108.311
108.297
108.43
108.351
108.567
108.566
108.551
108.629
108.559
108.641
108.706
108.64
108.672
108.281
108.654
108.281
108.456
108.311
108.411
108.301
108.33
108.348
108.42
108.426
108.368
108.326
108.433
108.579
108.558
108.564
108.655
108.573
108.635
108.708
108.663
108.674
108.278
108.654
108.281
108.42
108.293
108.413
108.294
108.33
108.491
108.425
108.449
108.362
108.33
108.432
108.587
108.584
108.569
108.653
108.57
108.645
108.676
108.653
108.675
108.278
108.671
108.266
108.43
108.323
108.361
108.261
108.279
108.361
108.44
108.436
108.317
108.331
108.417
108.572
108.56
108.562
108.649
108.557
108.654
108.679
108.664
108.671
108.272
108.681
108.293
108.344
108.248
108.36
108.248
108.281
108.32
108.481
108.409
108.385
108.296
108.402
108.261
108.564
108.568
108.549
108.651
108.682
108.348
108.402
108.425
108.446
108.484
108.514
108.556
108.431
108.333
108.152
108.279
107.911
108.385
108.348
108.343
108.482
108.379
108.46
108.44
108.55
108.47
108.655
108.63
108.644
108.494
108.337
108.252
108.171
108.436
107.545
108.458
108.565
108.423
108.344
108.394
108.534
107.703
108.607
108.648
108.593
108.447
108.546
108.053
108.309
108.294
108.459
108.329
108.235
108.281
108.252
108.327
108.57
108.649
108.618
108.102
108.403
108.061
108.832
108.331
108.423
108.32
108.265
108.358
108.256
108.358
108.395
108.393
108.595
108.284
108.41
108.41
108.338
108.383
108.449
108.631
108.501
108.46
108.429
108.504
108.619
108.692
108.625
108.083
108.993
108.069
108.984
108.319
108.396
108.312
108.239
108.36
108.246
108.352
108.4
108.413
108.597
108.346
108.411
108.403
108.341
108.54
108.481
108.655
108.486
108.48
108.538
108.486
108.617
108.667
108.619
108.072
108.992
108.084
108.984
108.313
108.439
108.305
108.26
108.339
108.221
108.31
108.311
108.381
108.557
108.371
108.374
108.274
108.355
108.423
108.462
108.652
108.479
108.458
108.382
108.467
108.622
108.689
108.573
108.081
108.848
108.135
108.435
108.307
108.389
108.282
108.243
108.248
108.009
108.301
108.544
108.526
108.63
108.08
108.397
108.451
108.555
108.231
108.329
108.285
108.287
108.309
108.098
108.146
108.338
108.438
108.373
107.975
108.49
108.261
108.296
108.401
108.517
108.009
108.213
108.327
108.471
108.388
108.25
108.422
108.134
108.209
108.063
108.25
108.457
108.42
108.563
108.209
108.296
108.155
108.404
108.522
108.381
108.502
108.275
108.337
108.319
108.432
108.444
108.364
108.365
108.216
108.503
108.338
108.263
108.347
108.346
108.291
108.414
108.41
108.367
108.434
108.255
108.365
108.451
108.452
108.422
108.448
108.468
108.473
108.532
108.487
108.456
108.408
108.458
108.415
108.426
108.422
108.411
108.457
108.424
108.487
108.372
108.487
108.639
108.506
108.503
108.456
108.455
108.523
108.557
108.479
108.532
108.481
108.473
108.484
108.526
108.453
108.502
108.458
108.449
108.414
108.546
108.566
108.478
108.53
108.383
108.481
108.602
108.543
108.523
108.604
108.584
108.52
108.536
108.431
108.555
108.645
108.53
108.496
108.512
108.518
108.342
108.211
108.339
108.433
108.343
108.143
108.294
108.209
108.418
108.367
108.399
108.241
108.408
108.433
108.248
108.207
108.41
108.269
108.221
108.29
108.274
108.233
108.399
108.394
108.417
108.403
108.217
108.435
108.388
108.391
108.413
108.448
108.406
108.39
108.417
108.339
108.473
108.417
108.486
108.352
108.464
108.432
108.376
108.382
108.443
108.394
108.385
108.37
108.412
108.329
108.455
108.49
108.412
108.462
108.32
108.418
108.449
108.473
108.461
108.534
108.454
108.477
108.462
108.357
108.556
108.476
108.541
108.371
108.572
108.486
108.452
108.474
108.536
108.459
108.475
108.449
108.463
108.354
108.589
108.537
108.495
108.578
108.354
108.486
108.269
108.207
108.266
108.38
108.274
108.203
108.265
108.213
108.398
108.415
108.389
108.216
108.395
108.414
108.276
108.226
108.389
108.264
108.204
108.234
108.262
108.212
108.396
108.389
108.436
108.395
108.225
108.413
108.37
108.394
108.392
108.441
108.374
108.387
108.391
108.31
108.459
108.409
108.484
108.311
108.463
108.406
108.37
108.391
108.441
108.415
108.387
108.378
108.391
108.312
108.472
108.487
108.424
108.463
108.32
108.404
108.442
108.47
108.459
108.523
108.441
108.473
108.461
108.354
108.591
108.496
108.54
108.351
108.593
108.491
108.444
108.486
108.525
108.463
108.474
108.456
108.464
108.355
108.584
108.541
108.488
108.595
108.365
108.492
108.323
108.137
108.298
108.493
108.322
108.207
108.326
108.241
108.393
108.399
108.387
108.207
108.414
108.342
108.333
108.286
108.495
108.332
108.235
108.355
108.334
108.249
108.458
108.392
108.37
108.42
108.287
108.344
108.411
108.386
108.418
108.436
108.381
108.395
108.409
108.358
108.473
108.418
108.48
108.341
108.479
108.417
108.427
108.468
108.438
108.422
108.455
108.41
108.376
108.498
108.477
108.475
108.404
108.418
108.462
108.462
108.46
108.503
108.451
108.464
108.457
108.4
108.581
108.485
108.573
108.374
108.562
108.474
108.464
108.516
108.503
108.459
108.5
108.483
108.447
108.397
108.554
108.555
108.488
108.561
108.434
108.485
108.465
108.561
108.643
108.535
108.566
108.456
108.525
108.399
108.278
108.354
108.411
108.369
108.35
108.386
108.39
108.463
108.388
108.328
108.423
108.41
108.388
108.388
108.405
108.355
108.372
108.392
108.407
108.399
108.401
108.443
108.424
108.409
108.497
108.437
108.528
108.512
108.482
108.43
108.444
108.407
108.563
108.526
108.404
108.514
108.452
108.449
108.523
108.498
108.5
108.45
108.498
108.62
108.474
108.539
108.488
108.539
108.467
108.526
108.49
108.622
108.627
108.48
108.499
108.532
108.539
108.516
108.552
108.586
108.532
108.541
108.555
108.589
108.552
108.538
108.605
108.587
108.531
108.546
108.569
108.586
108.527
108.351
108.392
108.423
108.374
108.447
108.431
108.392
108.424
108.393
108.35
108.417
108.427
108.469
108.378
108.437
108.436
108.396
108.444
108.428
108.557
108.412
108.581
108.55
108.458
108.531
108.473
108.432
108.638
108.594
108.444
108.559
108.495
108.477
108.579
108.473
108.615
108.476
108.634
108.573
108.543
108.557
108.547
108.476
108.666
108.643
108.506
108.578
108.538
108.543
108.589
108.559
108.55
108.566
108.572
108.583
108.582
108.371
108.402
108.498
108.38
108.251
108.343
108.347
108.442
108.515
108.449
108.493
108.556
108.497
108.685
108.595
108.448
108.645
108.538
108.546
108.502
108.593
108.594
108.551
108.546
108.529
108.693
108.623
108.506
108.661
108.528
108.572
108.534
108.565
108.544
108.589
108.363
108.36
108.337
108.37
108.348
108.32
108.332
108.349
108.353
108.42
108.411
108.346
108.362
108.414
108.421
108.412
108.332
108.354
108.336
108.41
108.418
108.338
108.373
108.379
108.394
108.525
108.422
108.529
108.468
108.569
108.61
108.56
108.571
108.556
108.544
108.554
108.545
108.597
108.565
108.597
108.572
108.558
108.592
108.609
108.603
108.587
108.609
108.604
108.367
108.314
108.296
108.31
108.377
108.373
108.309
108.324
108.318
108.383
108.331
108.42
108.405
108.424
108.341
108.43
108.416
108.327
108.349
108.331
108.434
108.426
108.417
108.432
108.332
108.416
108.332
108.34
108.373
108.393
108.368
108.464
108.327
108.327
108.389
108.363
108.364
108.483
108.426
108.398
108.413
108.491
108.406
108.468
108.551
108.469
108.518
108.449
108.433
108.551
108.475
108.474
108.641
108.569
108.565
108.581
108.705
108.591
108.597
108.681
108.598
108.381
108.323
108.302
108.322
108.383
108.379
108.304
108.307
108.32
108.362
108.33
108.434
108.417
108.43
108.331
108.435
108.418
108.338
108.339
108.329
108.43
108.429
108.416
108.434
108.328
108.418
108.336
108.322
108.362
108.386
108.357
108.461
108.321
108.323
108.388
108.35
108.356
108.403
108.479
108.401
108.424
108.397
108.482
108.402
108.477
108.559
108.477
108.508
108.437
108.436
108.561
108.476
108.482
108.657
108.566
108.571
108.598
108.635
108.596
108.6
108.642
108.602
108.361
108.307
108.329
108.314
108.362
108.351
108.332
108.322
108.315
108.362
108.331
108.423
108.411
108.424
108.326
108.411
108.329
108.324
108.33
108.403
108.42
108.409
108.347
108.338
108.322
108.361
108.354
108.407
108.369
108.354
108.395
108.367
108.47
108.55
108.484
108.435
108.545
108.479
108.573
108.566
108.557
108.616
108.583
108.579
108.581
108.581
108.596
108.7
108.594
108.619
108.683
108.604
108.35
108.323
108.362
108.365
108.348
108.326
108.359
108.38
108.386
108.379
108.359
108.4
108.435
108.334
108.395
108.315
108.288
108.364
108.396
108.44
108.385
108.424
108.347
108.447
108.374
108.537
108.589
108.621
108.574
108.58
108.586
108.561
108.56
108.552
108.636
108.595
108.593
108.576
108.583
108.622
108.613
108.618
108.618
108.622
108.422
108.379
108.389
108.403
108.39
108.4
108.389
108.399
108.42
108.426
108.391
108.393
108.425
108.424
108.409
108.496
108.404
108.447
108.393
108.458
108.421
108.467
108.417
108.415
108.462
108.398
108.426
108.414
108.419
108.594
108.411
108.403
108.395
108.495
108.391
108.415
108.29
108.37
108.426
108.394
108.336
108.286
108.482
108.332
108.338
108.362
108.424
108.454
108.498
108.432
108.494
108.435
108.441
108.485
108.487
108.498
108.5
108.481
108.367
108.315
108.615
108.508
108.45
108.524
108.538
108.623
108.671
108.695
108.568
108.732
108.692
108.597
108.541
108.583
108.527
108.662
108.538
108.543
108.602
108.576
108.623
108.546
108.585
108.626
108.539
108.622
108.563
108.633
108.724
108.397
108.372
108.377
108.405
108.461
108.379
108.379
108.439
108.517
108.506
108.453
108.447
108.448
108.526
108.448
108.5
108.448
108.453
108.696
108.497
108.666
108.475
108.451
108.523
108.523
108.706
108.507
108.654
108.504
108.539
108.518
108.662
108.645
108.527
108.602
108.514
108.513
108.597
108.6
108.585
108.611
108.57
108.463
108.454
108.394
108.601
108.665
108.609
108.664
108.593
108.61
108.669
108.572
108.507
108.597
108.587
108.501
108.538
108.596
108.612
108.529
108.554
108.524
108.543
108.421
108.483
108.489
108.511
108.377
108.408
108.507
108.353
108.487
108.402
108.426
108.497
108.344
108.551
108.606
108.661
108.546
108.602
108.66
108.601
108.586
108.658
108.6
108.57
108.657
108.562
108.604
108.539
108.604
108.52
108.603
108.532
108.553
108.597
108.541
108.638
108.511
108.584
108.536
108.555
108.601
108.65
108.552
108.591
108.525
108.542
108.373
108.487
108.484
108.482
108.411
108.401
108.477
108.41
108.481
108.401
108.416
108.477
108.409
108.534
108.604
108.658
108.537
108.61
108.659
108.604
108.516
108.661
108.61
108.516
108.662
108.588
108.63
108.569
108.614
108.556
108.608
108.553
108.569
108.605
108.568
108.644
108.53
108.605
108.559
108.577
108.614
108.645
108.576
108.608
108.544
108.568
108.376
108.49
108.488
108.482
108.399
108.482
108.397
108.484
108.403
108.41
108.481
108.406
108.532
108.612
108.662
108.535
108.615
108.664
108.612
108.52
108.666
108.616
108.519
108.667
108.589
108.647
108.561
108.615
108.562
108.612
108.547
108.578
108.614
108.579
108.648
108.544
108.611
108.568
108.579
108.615
108.647
108.571
108.612
108.54
108.566
108.409
108.489
108.488
108.487
108.408
108.4
108.49
108.356
108.503
108.404
108.343
108.495
108.332
108.548
108.618
108.686
108.558
108.633
108.687
108.616
108.559
108.676
108.62
108.576
108.674
108.572
108.632
108.545
108.623
108.545
108.611
108.536
108.568
108.612
108.562
108.646
108.538
108.604
108.55
108.57
108.631
108.636
108.562
108.596
108.54
108.554
108.475
108.449
108.499
108.503
108.355
108.407
108.499
108.359
108.427
108.422
108.402
108.49
108.383
108.599
108.634
108.693
108.617
108.554
108.626
108.546
108.53
108.549
108.471
108.422
108.454
108.451
108.459
108.425
108.393
108.426
108.474
108.479
108.432
108.414
108.413
108.421
108.405
108.368
108.473
108.461
108.432
108.379
108.454
108.4
108.395
108.392
108.449
108.351
108.513
108.413
108.47
108.399
108.48
108.412
108.348
108.537
108.569
108.508
108.458
108.472
108.382
108.359
108.39
108.456
108.398
108.512
108.438
108.288
108.484
108.412
108.527
108.538
108.327
108.433
108.471
108.469
108.653
108.568
108.647
108.542
108.385
108.365
108.432
108.473
108.516
108.506
108.4
108.241
108.418
108.287
108.515
108.68
108.501
108.53
108.555
108.438
108.54
108.377
108.55
108.537
108.374
108.501
108.357
108.593
108.575
108.464
108.533
108.58
108.577
108.579
108.519
108.826
108.638
108.509
108.544
108.51
108.67
108.59
108.608
108.499
108.591
108.822
108.412
108.688
108.434
108.425
108.551
108.532
108.527
108.341
108.616
108.424
108.625
108.364
108.411
108.352
108.456
108.377
108.406
108.4
108.42
108.408
108.372
108.406
108.302
108.324
108.513
108.38
108.402
108.434
108.439
108.6
108.611
108.406
108.408
108.475
108.525
108.49
108.548
108.564
108.544
108.649
108.476
108.494
108.558
108.555
108.55
108.565
108.594
108.603
108.599
108.582
108.566
108.59
108.608
108.615
108.618
108.586
108.568
108.589
108.528
108.599
108.559
108.563
108.551
108.521
108.555
108.595
108.401
108.359
108.407
108.297
108.463
108.333
108.422
108.305
108.414
108.289
108.401
108.392
108.447
108.345
108.203
108.336
108.436
108.346
108.241
108.443
108.323
108.333
108.354
108.447
108.246
108.39
108.334
108.429
108.323
108.318
108.416
108.39
108.417
108.424
108.295
108.309
108.4
108.403
108.413
108.418
108.564
108.45
108.513
108.543
108.511
108.624
108.444
108.448
108.546
108.499
108.507
108.488
108.669
108.523
108.561
108.557
108.583
108.665
108.514
108.524
108.564
108.584
108.586
108.569
108.617
108.623
108.574
108.623
108.578
108.563
108.573
108.649
108.638
108.632
108.568
108.581
108.56
108.666
108.578
108.558
108.58
108.66
108.587
108.58
108.575
108.358
108.365
108.333
108.417
108.407
108.453
108.368
108.43
108.329
108.359
108.346
108.438
108.329
108.31
108.449
108.352
108.421
108.308
108.331
108.394
108.345
108.305
108.381
108.353
108.455
108.417
108.405
108.38
108.34
108.355
108.417
108.39
108.405
108.443
108.52
108.453
108.48
108.527
108.477
108.505
108.452
108.453
108.525
108.478
108.477
108.511
108.596
108.517
108.585
108.579
108.59
108.582
108.519
108.524
108.59
108.579
108.6
108.579
108.685
108.637
108.565
108.595
108.577
108.585
108.576
108.687
108.61
108.604
108.578
108.602
108.599
108.666
108.581
108.604
108.604
108.669
108.614
108.604
108.609
108.355
108.346
108.333
108.424
108.363
108.44
108.367
108.435
108.334
108.359
108.355
108.417
108.327
108.286
108.395
108.35
108.421
108.287
108.319
108.417
108.358
108.339
108.395
108.349
108.39
108.409
108.395
108.4
108.287
108.348
108.416
108.426
108.394
108.452
108.49
108.451
108.479
108.53
108.478
108.5
108.443
108.45
108.53
108.476
108.478
108.522
108.591
108.526
108.579
108.583
108.588
108.592
108.529
108.527
108.59
108.605
108.594
108.582
108.69
108.617
108.588
108.61
108.587
108.571
108.582
108.69
108.614
108.6
108.584
108.609
108.617
108.664
108.598
108.618
108.608
108.666
108.607
108.59
108.613
108.393
108.358
108.296
108.453
108.302
108.399
108.299
108.415
108.283
108.387
108.376
108.43
108.336
108.302
108.431
108.299
108.431
108.32
108.307
108.243
108.313
108.428
108.289
108.293
108.398
108.331
108.424
108.445
108.393
108.267
108.41
108.314
108.308
108.444
108.386
108.432
108.434
108.559
108.434
108.477
108.535
108.492
108.559
108.394
108.434
108.537
108.495
108.494
108.524
108.641
108.523
108.592
108.588
108.584
108.649
108.492
108.524
108.581
108.558
108.584
108.575
108.696
108.636
108.589
108.643
108.571
108.567
108.568
108.666
108.609
108.591
108.582
108.58
108.597
108.66
108.591
108.583
108.58
108.657
108.567
108.586
108.564
108.376
108.379
108.307
108.387
108.445
108.347
108.313
108.36
108.399
108.32
108.232
108.389
108.415
108.324
108.197
108.372
108.283
108.257
108.314
108.392
108.359
108.315
108.402
108.355
108.4
108.396
108.403
108.379
108.373
108.344
108.337
108.361
108.367
108.356
108.393
108.406
108.545
108.391
108.489
108.453
108.499
108.568
108.401
108.391
108.45
108.484
108.501
108.537
108.481
108.611
108.474
108.559
108.553
108.504
108.552
108.623
108.51
108.478
108.477
108.561
108.543
108.466
108.519
108.463
108.543
108.589
108.626
108.579
108.624
108.565
108.545
108.587
108.551
108.559
108.551
108.585
108.561
108.567
108.547
108.589
108.581
108.589
108.55
108.569
108.362
108.439
108.356
108.373
108.368
108.354
108.363
108.424
108.348
108.376
108.346
108.326
108.319
108.399
108.357
108.471
108.431
108.376
108.326
108.453
108.417
108.422
108.358
108.419
108.384
108.284
108.344
108.512
108.374
108.367
108.347
108.433
108.347
108.432
108.316
108.352
108.486
108.296
108.35
108.515
108.308
108.355
108.379
108.372
108.409
108.216
108.43
108.443
108.289
108.487
108.419
108.52
108.473
108.47
108.462
108.537
108.505
108.506
108.433
108.434
108.456
108.457
108.444
108.454
108.455
108.511
108.506
108.421
108.439
108.595
108.474
108.44
108.472
108.398
108.422
108.466
108.459
108.48
108.349
108.514
108.55
108.4
108.511
108.54
108.49
108.601
108.537
108.54
108.519
108.507
108.499
108.529
108.481
108.522
108.485
108.529
108.575
108.463
108.542
108.479
108.437
108.514
108.655
108.545
108.536
108.55
108.483
108.487
108.547
108.416
108.45
108.412
108.451
108.458
108.437
108.413
108.335
108.324
108.374
108.289
108.48
108.376
108.477
108.394
108.456
108.424
108.416
108.439
108.394
108.308
108.363
108.466
108.426
108.273
108.553
108.544
108.526
108.495
108.445
108.491
108.589
108.616
108.466
108.547
108.517
108.548
108.511
108.511
108.439
108.596
108.296
108.415
108.417
108.597
108.358
108.539
108.48