/*--------------------------------*- C++ -*----------------------------------*\
  =========                 |
  \\      /  F ield         | OpenFOAM: The Open Source CFD Toolbox
   \\    /   O peration     | Website:  https://openfoam.org
    \\  /    A nd           | Version:  10
     \\/     M anipulation  |
\*---------------------------------------------------------------------------*/
FoamFile
{
    format      ascii;
    class       volVectorField;
    location    "0.05";
    object      U;
}
// * * * * * * * * * * * * * * * * * * * * * * * * * * * * * * * * * * * * * //

dimensions      [0 1 -1 0 0 0 0];

internalField   nonuniform List<vector> 
115408
(
(0.0399599 0.0032493 -0.00384574)
(0.0611888 0.000239041 0.00943214)
(0.084911 -0.00822189 0.0294724)
(-0.0038419 0.00165055 -0.0520739)
(0.0543299 -0.0149284 0.114552)
(0.0820732 0.00490052 0.033484)
(0.0118495 -0.0106195 -0.135954)
(0.0747432 -0.00519732 0.0605511)
(0.00484611 -0.0307663 0.00687787)
(0.0448634 0.00153772 -0.00519634)
(0.0500621 -0.0133845 0.0214351)
(0.0604292 0.0106097 0.00861165)
(0.075009 0.0111753 0.0248995)
(0.0134141 -0.021126 0.140885)
(0.0824768 -0.0295698 -0.00324165)
(0.070731 -0.00333721 0.0214903)
(0.0716522 -0.000381631 0.0159372)
(0.062385 0.0271228 -0.114894)
(0.0437364 -0.0271035 0.0621551)
(0.0849913 -0.0178752 -0.0227195)
(0.0786195 -0.000677622 0.00531578)
(0.0727435 0.00303591 0.0039807)
(0.0968189 0.0243645 0.0123911)
(0.0525531 -0.0187208 0.0208265)
(0.0868407 -0.00748417 -0.0260977)
(0.0901051 -0.000901129 0.0098957)
(0.0845729 0.00560033 -0.00528597)
(0.103007 0.015056 0.02473)
(0.0586241 0.00302957 0.0288409)
(0.106963 -0.00362121 0.00808447)
(0.0961279 0.00459317 0.00636948)
(0.0895715 0.00727815 0.00262652)
(0.110321 0.0124737 0.0127754)
(0.127475 0.0103681 0.0266992)
(0.102499 0.015328 0.0129982)
(0.0844989 0.00906109 -0.13253)
(-0.00945709 0.0562065 0.493626)
(0.137279 -0.134729 0.472773)
(0.0699312 -0.0782463 0.510529)
(-0.403626 0.133642 0.0264409)
(0.274739 -0.044124 0.0117564)
(0.095472 0.0575008 -0.0464703)
(0.0931749 -0.159748 0.0534655)
(-0.210875 0.0599726 -0.0857648)
(0.446021 0.0401116 0.529781)
(-0.261646 -0.0511113 -0.00215915)
(0.19428 0.0153226 -0.0352953)
(-0.0383538 0.17071 -0.0223662)
(0.118289 -0.0736305 -0.052953)
(0.162288 -0.109665 -0.0363699)
(-0.0173133 0.208754 0.037614)
(0.0984963 -0.142055 -0.0330913)
(0.0838329 -0.00943067 -0.0467901)
(0.0741429 0.166757 -0.0291091)
(-0.023612 -0.194326 -0.0064962)
(0.0548076 0.112562 -0.0100194)
(0.116081 -0.0109754 -0.0393026)
(0.273884 0.142287 -0.0102388)
(-0.386535 -0.0594086 -0.0415747)
(0.343362 0.444112 0.438955)
(0.0648301 0.408085 0.408181)
(0.00235758 0.535045 0.442399)
(-0.311589 0.0528715 0.0166026)
(0.140509 -0.141936 -0.057522)
(0.0397771 0.106198 -0.0544678)
(-0.23611 0.176541 -0.0921035)
(0.207366 0.459045 0.428954)
(0.10514 0.0144773 0.463889)
(0.0630436 0.135685 0.509762)
(0.0305671 0.0394951 0.529933)
(-0.0300777 0.697033 0.454842)
(-0.347511 -0.17663 0.0297217)
(0.276797 0.113989 -0.00690984)
(-0.248613 -0.0340455 -0.0783764)
(0.3663 0.0981743 0.431509)
(0.162007 0.0177875 0.431165)
(0.0610474 0.0397321 0.501897)
(0.0619225 0.0441991 0.511758)
(0.058116 0.129952 0.573307)
(-0.291229 -0.141802 -0.107741)
(0.470907 -0.121018 0.386012)
(0.238786 -0.0515788 0.397104)
(-0.0456747 0.00168497 0.504125)
(0.0697782 0.000128732 0.487688)
(0.0959551 -0.166197 0.505638)
(0.174673 -0.053682 0.0170491)
(-0.290428 0.0624283 -0.0868929)
(0.560587 -0.0265506 0.425533)
(0.189101 -0.0557316 0.428293)
(-0.308255 -0.0538877 0.0297492)
(0.115881 -0.141108 -0.00525384)
(0.127196 -0.00746856 -0.00450387)
(0.130687 0.0044544 0.00680007)
(0.0785009 0.0720007 0.672693)
(0.0892771 0.0363608 0.746242)
(-0.0581666 0.0615946 0.307706)
(-0.0155017 0.00489688 0.757656)
(0.198743 -0.210317 0.497414)
(-0.478175 0.193739 -0.0780679)
(0.387246 -0.0630811 0.04344)
(-0.303696 -0.0124076 0.089874)
(0.274685 0.0238602 0.4937)
(-0.00569257 0.00366291 0.602509)
(0.0300792 0.0809626 0.471338)
(0.111838 0.0861055 0.358952)
(-0.00580556 0.0787348 0.760697)
(0.0542999 0.0716542 0.529943)
(0.116925 0.0786215 0.654337)
(-0.127568 -0.143738 0.0102843)
(-0.0460425 0.185137 -0.114844)
(0.214025 -0.0216933 0.0148689)
(-0.294182 0.00419358 0.0777943)
(0.260361 -0.0236218 0.509575)
(-0.0225224 0.0115663 0.53372)
(0.0391627 -0.0270002 0.545966)
(0.0474325 0.0307628 0.554027)
(0.0560434 0.0403128 0.578426)
(0.0535164 -0.0122672 0.557565)
(0.12226 0.0433173 0.693931)
(-0.197226 0.0183974 -0.01666)
(0.00750987 0.0236928 -0.111531)
(0.245896 0.0248836 0.0451241)
(-0.274881 -0.0470714 0.053681)
(0.274129 -0.0195602 0.579785)
(-0.0447085 -0.0577872 0.454364)
(0.113255 -0.0848665 0.270495)
(0.0856885 -0.0549475 0.406717)
(0.0260031 -0.0546945 0.27583)
(-0.0369806 -0.0176067 0.756334)
(0.126008 -0.00629736 0.570913)
(-0.124148 0.181075 0.0301914)
(-0.0350028 -0.157772 -0.13594)
(0.227944 0.135503 0.0378491)
(-0.28228 -0.0340688 0.154839)
(0.28187 -0.0320913 0.419043)
(0.0683731 -0.0669946 0.297585)
(0.13823 -0.0354324 0.551572)
(0.0746058 -0.00731138 0.610384)
(0.0514336 -0.0137725 0.557543)
(-0.043411 -0.0143491 0.180841)
(-0.0179909 -0.0544569 0.797377)
(0.00570226 0.808993 0.436295)
(-0.400827 -0.153864 -0.0874907)
(-0.194149 -0.156152 0.104499)
(0.272875 -0.0888537 0.425452)
(0.0573883 -0.0136408 0.309395)
(0.197005 -0.00744284 0.648498)
(0.098622 0.00229067 0.596341)
(0.0765983 -0.00132074 0.568461)
(0.00992098 0.030927 0.462097)
(0.00491596 -0.203796 0.31104)
(0.110591 -0.0165832 0.393814)
(0.266925 -0.00571914 0.705399)
(0.0660963 -0.00735788 0.644558)
(0.0723847 -0.00435113 0.612527)
(-0.0224198 0.0346547 0.314438)
(0.0426735 -0.0475278 0.586202)
(0.150541 -0.0437747 0.425419)
(0.216517 -0.0879917 0.386701)
(0.125631 -0.0625474 0.34872)
(-0.0657525 -0.0157902 0.725086)
(0.244976 -0.273699 0.461596)
(0.190091 -0.169579 0.432706)
(0.115398 -0.131051 0.461343)
(0.0942307 -0.0138131 0.636641)
(0.0304431 -0.0578996 0.622157)
(-0.0877166 -0.00359785 0.731237)
(-0.0196046 -0.163487 0.808592)
(0.259397 0.053778 0.365761)
(-0.210598 -0.0872704 0.06111)
(0.257647 0.180836 -0.0132125)
(0.0735526 0.0235376 0.0325131)
(0.0117302 -0.0060775 0.669327)
(0.0824969 -0.0123737 0.364341)
(0.0371597 -0.0374912 0.730097)
(-0.0528578 -0.0682673 0.683968)
(-0.0199682 -0.0317582 0.648142)
(0.0315977 -0.0373976 0.704626)
(0.101406 -0.0323078 0.710772)
(-0.150399 0.0178617 0.356746)
(0.0195941 -0.00503799 0.84785)
(-0.350976 -0.0156113 -0.127928)
(0.374219 0.0177968 0.0118945)
(0.0864937 -0.0234862 0.0564685)
(0.0273896 -0.0179826 0.655924)
(0.0872036 -0.0182828 0.366326)
(0.0539516 -0.00531583 0.714062)
(-0.0282065 -0.033218 0.714122)
(-0.0161894 -0.037983 0.693687)
(0.028306 0.0241524 0.699332)
(0.0929718 7.00216e-05 0.727412)
(-0.138411 0.0182737 0.348989)
(0.0155456 0.0160988 0.827726)
(-0.300196 0.0104564 -0.0929668)
(0.35427 0.0649416 0.0259112)
(0.101296 -0.0728122 0.0754744)
(0.025051 -0.0370875 0.646459)
(0.0893525 -0.0300171 0.360365)
(0.0584795 0.00541739 0.686715)
(-0.0927988 0.0643863 0.654108)
(0.0198021 0.0863189 0.577126)
(0.0465388 0.0352286 0.571322)
(0.101413 0.00784949 0.738248)
(-0.139139 0.0388017 0.327822)
(0.0242044 0.0657137 0.86149)
(-0.305646 0.0474039 -0.124415)
(0.367299 0.0100321 0.0127143)
(0.0338077 -0.0723887 0.0180531)
(0.0548949 -0.0666895 0.679061)
(0.108811 -0.0250205 0.307546)
(-0.0151997 -0.0185452 0.651127)
(-0.146551 0.043065 0.574477)
(0.0953669 0.0227813 0.476814)
(0.0355106 0.119904 0.391336)
(-0.0619767 0.0526946 0.709128)
(-0.0790917 0.408093 0.67719)
(0.211457 0.0983904 0.256956)
(-0.251142 0.076528 0.0824758)
(0.0550198 -0.0897587 0.631885)
(0.0937155 -0.0213876 0.336553)
(0.0206308 -0.0459452 0.744828)
(0.0721166 0.0265257 0.460338)
(0.0947637 -0.0150155 0.431748)
(0.0934714 0.00820648 0.421222)
(-0.0479597 0.0838669 0.209934)
(-0.166324 0.0889415 0.529312)
(-0.157947 -0.102315 0.789185)
(0.0434474 -0.114486 0.528712)
(0.0303679 -0.0523362 0.541858)
(0.0902022 -0.0414925 0.465755)
(-0.12576 -0.0966462 0.804531)
(-0.0208851 -0.164584 0.726568)
(-0.0191728 -0.329819 0.640065)
(0.00393506 -0.284283 0.633915)
(0.186536 -0.258225 0.606397)
(0.251868 -0.300742 0.365263)
(0.0359752 -0.0963487 0.513524)
(0.572749 0.0206371 0.197867)
(0.0425602 -0.0619972 0.16104)
(-0.0389067 0.0489765 0.0894235)
(-0.152228 0.00261081 0.0229997)
(0.275781 0.0875924 -0.0183432)
(0.151334 -0.0276957 -0.121989)
(0.0368801 0.0128992 0.299195)
(-0.126007 -0.00526109 0.191359)
(-0.0606709 -0.0102695 0.271684)
(0.391843 -0.00866878 -0.134632)
(0.417399 -0.031037 0.31372)
(0.0120562 0.0102272 0.160214)
(-0.0464751 -0.0167446 0.143652)
(-0.25428 0.0108974 0.031092)
(0.334191 0.0133675 -0.0263524)
(0.19996 -0.0174514 -0.0982455)
(0.0133271 -0.0196657 0.307431)
(-0.113291 -0.0168866 0.194517)
(-0.0627069 -0.0138785 0.2819)
(0.232383 -0.0115246 0.0846582)
(0.593541 -0.0661251 -0.0460905)
(0.390335 0.00648126 0.0642604)
(0.466703 0.00552938 0.278904)
(0.0187018 0.013638 0.157553)
(-0.038218 0.00789549 0.146244)
(-0.206631 0.0258748 0.0410396)
(0.320602 0.0250103 -0.0212865)
(0.192786 -0.0549031 -0.0995268)
(0.0190911 -0.0399489 0.306591)
(-0.109833 -0.029537 0.191482)
(-0.0535689 -0.0195114 0.268861)
(0.283685 -0.011242 -0.0655074)
(0.570885 0.0172 -0.0579726)
(0.579955 0.0295141 0.0418243)
(0.41446 0.0256248 0.309926)
(0.019432 0.0179105 0.155436)
(-0.033707 0.0341092 0.139036)
(-0.249191 0.0161786 0.0391474)
(0.34254 0.0716811 -0.0471754)
(0.14756 -0.0321782 -0.0846432)
(0.0534252 -0.0690455 0.300566)
(-0.111671 -0.0406408 0.176475)
(-0.0771902 -0.017546 0.234034)
(0.582102 -0.0399408 -0.231026)
(0.516743 -0.00165337 0.19499)
(0.0227807 0.0702009 0.0786089)
(-0.00999179 0.0458902 0.0435782)
(0.0940998 -0.119821 0.275825)
(-0.128694 -0.0533671 0.11642)
(-0.00690475 -0.0273519 0.373332)
(0.663374 -0.0374289 -0.359077)
(0.179011 0.159718 0.260245)
(-0.0202471 0.165189 0.362375)
(0.619104 0.0497643 -0.313052)
(0.0895151 -0.181858 0.253843)
(0.143582 -0.175398 0.345405)
(0.179357 -0.22311 0.163684)
(0.14605 -0.182482 0.104341)
(0.081094 -0.283922 0.283785)
(0.304103 -0.0594786 -0.232266)
(0.0401186 0.0550794 0.0565888)
(0.0965823 0.0880929 -0.0108862)
(-0.105247 -0.0395225 0.0410281)
(0.243494 0.143693 -0.0660835)
(0.248196 -0.0258239 0.0104044)
(-0.145989 0.044935 0.101685)
(-0.347529 0.033316 0.100231)
(0.283768 0.0218303 -0.308433)
(0.0268615 0.0347372 0.0489301)
(0.105556 0.022291 0.0164792)
(-0.214549 0.0013185 0.0127507)
(0.351647 0.0129712 -0.00156498)
(0.298404 -0.000624477 -0.00670136)
(-0.192694 -0.0152038 0.106806)
(-0.339754 -0.0134225 0.109401)
(0.267934 -0.0128471 -0.320193)
(-0.00972378 0.0274434 0.0411517)
(0.114745 0.010607 0.0253317)
(-0.143016 0.0192979 0.0321917)
(0.314201 0.0428125 -0.0428208)
(0.297696 -0.0586425 0.00252856)
(-0.191709 -0.0524889 0.104417)
(-0.337948 -0.0491807 0.101379)
(0.275714 -0.0339538 -0.317652)
(0.0383702 0.0355323 0.050469)
(0.122857 0.0183319 0.0128211)
(-0.200438 0.0349927 0.00541131)
(0.352542 0.0557582 0.00906756)
(0.23159 -0.023319 0.00371121)
(-0.116832 -0.0899037 0.0920313)
(-0.321627 -0.0963587 0.0676821)
(0.317246 -0.0495529 -0.271355)
(0.053634 0.0386036 0.0500492)
(0.148666 -0.00825342 -0.0137422)
(-0.0426687 -0.152434 0.0700167)
(-0.201632 -0.148049 0.0515856)
(0.225732 0.126861 -0.158078)
(0.226952 0.203818 0.00255426)
(-0.172731 -0.00802389 0.000157601)
(0.199792 -0.263735 0.0910936)
(0.133569 -0.356661 0.215187)
(0.138524 -0.0227859 0.125391)
(0.0484902 0.0660332 -0.0260555)
(-0.220763 0.0692147 -0.0824742)
(0.149065 -0.0546933 0.0826392)
(0.0604967 0.0639619 -0.0824131)
(0.0681338 0.0528774 -0.109595)
(-0.269871 0.00390635 -0.0490761)
(0.329485 0.0194306 -0.00256754)
(0.200821 -0.0156752 0.121958)
(-0.0278271 0.0340678 -0.062159)
(-0.234878 0.0525928 -0.117883)
(0.24289 -0.0215071 0.195328)
(0.0721313 0.020726 -0.0374864)
(0.101976 0.0313589 -0.121854)
(-0.260074 0.021268 -0.0519103)
(0.335083 0.0388863 0.0417789)
(0.215816 -0.0255112 0.116984)
(-0.0392636 -0.018645 -0.0730192)
(-0.229931 -0.0152305 -0.135891)
(0.220085 -0.0223483 0.193367)
(0.00791213 0.024261 -0.00640863)
(0.112182 0.0129109 -0.119227)
(-0.240949 0.0182265 -0.040436)
(0.337383 0.0358711 0.00890124)
(0.219841 -0.0441406 0.112117)
(-0.0297431 -0.0642257 -0.0696287)
(-0.221895 -0.0793885 -0.120237)
(0.25673 -0.0052416 0.192387)
(0.0640085 -0.00218601 -0.0295431)
(0.119442 0.005932 -0.117953)
(-0.251725 0.0096988 -0.0512374)
(0.342284 0.0414115 0.0386191)
(0.145405 -0.0315567 0.140766)
(0.041626 -0.0851392 -0.0573261)
(-0.186341 -0.0931841 -0.101452)
(0.218141 0.0165227 0.118755)
(0.263202 0.0134445 -0.145505)
(0.118211 -0.0139139 -0.103506)
(0.101288 -0.124815 -0.0471504)
(-0.157428 -0.0947687 -0.0663307)
(0.238651 -0.0114999 0.0272729)
(-0.129346 -0.00652003 -0.0647291)
(-0.0253443 -0.147695 -0.156289)
(0.146661 -0.132845 -0.198536)
(0.765191 -0.0745348 0.0407463)
(-0.0723552 -0.537021 -0.318211)
(-0.0769905 -0.565542 -0.316654)
(-0.052265 0.358875 -0.217008)
(0.132974 0.0900513 -0.260284)
(-0.40973 -0.0182007 0.197623)
(0.0786155 0.040332 -0.0360937)
(0.277952 0.0385832 -0.17914)
(-0.0873829 0.100337 -0.203681)
(0.175352 0.0846884 -0.302899)
(-0.11435 0.115596 -0.31566)
(0.129884 0.0338483 -0.175797)
(0.13663 0.0166351 -0.232072)
(0.0011081 0.372412 -0.284584)
(0.0590326 0.222689 -0.284138)
(0.264508 0.0297465 -0.233009)
(-0.31287 -0.00189 0.245438)
(0.109813 -0.0340344 -0.0551453)
(0.220913 0.0458528 -0.181273)
(-0.298881 0.2227 -0.245615)
(-0.0618106 -0.0410022 -0.28989)
(0.0946378 0.0103576 -0.217689)
(0.203683 0.00577055 -0.0555322)
(0.234646 -0.0239225 -0.309948)
(0.125473 0.00356237 -0.259109)
(0.0426603 0.0479082 -0.327539)
(0.258457 0.0190461 -0.256994)
(-0.352619 0.0116373 0.22459)
(0.145146 -0.0100145 -0.0453747)
(0.181119 -0.0232763 -0.189973)
(-0.316701 -0.0131046 -0.233542)
(0.0758605 -0.0118403 -0.293361)
(0.134585 -0.0111383 -0.149192)
(0.255412 0.00422801 -0.0528316)
(0.358673 0.0104984 -0.184425)
(0.132894 0.00669002 -0.23787)
(0.0236251 0.0150004 -0.259469)
(0.267565 0.0162771 -0.261894)
(-0.307763 0.019534 0.233066)
(0.129608 -0.0354207 -0.0607584)
(0.210069 -0.078548 -0.186131)
(-0.288723 -0.241389 -0.244842)
(-0.0754358 -0.0234903 -0.294765)
(0.113356 -0.0130431 -0.201378)
(0.209039 -0.0306976 -0.154589)
(0.253721 -0.0159066 -0.207433)
(0.13152 0.0227405 -0.272292)
(0.00996732 0.0110362 -0.340698)
(0.269414 0.0214497 -0.256789)
(-0.332465 0.0234165 0.227938)
(0.0788985 -0.0368336 -0.0470494)
(0.298035 -0.0808799 -0.188628)
(-0.0715919 -0.111949 -0.215676)
(0.202226 -0.0488771 -0.303559)
(0.143105 -0.123793 -0.294085)
(0.154373 -0.0290095 -0.156473)
(0.158755 -0.010338 -0.227021)
(-0.0130858 -0.271301 -0.397372)
(0.0634037 -0.103468 -0.253019)
(0.300647 0.00821229 -0.206886)
(-0.288656 0.0443472 0.222698)
(0.0479397 -0.0902453 -0.0732638)
(0.359938 -0.0884026 -0.178394)
(0.0135132 -0.0762747 -0.257882)
(0.1737 -0.103241 -0.36128)
(0.0157264 -0.102649 -0.404711)
(0.0168522 -0.171995 -0.390224)
(0.182875 -0.173559 -0.310708)
(0.133776 -0.0405324 -0.260207)
(-0.371035 -0.14268 -0.325934)
(0.0990588 -0.179531 -0.376482)
(0.0319361 -0.147254 -0.349679)
(0.0446964 -0.115633 -0.367394)
(-0.156246 -0.388771 -0.455943)
(-0.0369558 -0.34843 -0.499479)
(0.0986457 0.138007 -0.269395)
(0.0514601 0.0956744 -0.422747)
(0.0756406 0.101024 -0.422766)
(0.0305366 0.103645 -0.135585)
(0.157807 0.254522 -0.192277)
(-0.184434 0.0311656 -0.0986413)
(-0.0346357 0.00467307 0.185456)
(0.352337 -0.00325096 -0.0525822)
(-0.362602 -0.0415333 -0.113988)
(0.65277 0.136446 -0.116248)
(0.127102 0.0663133 -0.264198)
(0.0757995 0.039839 -0.364352)
(0.0591505 0.0382146 -0.351045)
(0.0855397 0.0439773 -0.347065)
(0.0656868 0.0613532 -0.38116)
(0.113545 0.0429483 -0.167493)
(-0.139498 -0.00638527 -0.0985176)
(-0.0180449 0.0308243 0.199923)
(0.383855 -0.0263007 -0.0393278)
(-0.300893 -0.00963301 -0.107497)
(0.559964 0.0611412 -0.109168)
(0.158821 0.0275439 -0.232076)
(0.0780693 0.0155846 -0.329556)
(0.0704692 0.0136161 -0.32366)
(0.0904203 0.0185618 -0.31557)
(0.0897742 0.0224904 -0.357395)
(0.0807368 0.029667 -0.0615316)
(-0.118429 0.0297723 -0.0965098)
(-0.0220631 0.00729916 0.195138)
(0.376583 -0.0316311 -0.0500634)
(-0.287679 -0.0219828 -0.114582)
(0.553908 -0.0100371 -0.105037)
(0.172228 -0.00720239 -0.226209)
(0.0879617 -0.00591837 -0.319706)
(0.078475 -0.00117127 -0.312956)
(0.0965246 0.000782163 -0.311032)
(0.0928449 0.00617905 -0.351033)
(0.083321 0.0108383 -0.0563415)
(-0.118598 0.0156229 -0.0886084)
(-0.00963719 0.0221913 0.200371)
(0.393198 -0.0454989 -0.0578199)
(-0.299836 -0.0294611 -0.104266)
(0.564789 -0.0685622 -0.113324)
(0.165787 -0.032341 -0.233576)
(0.0881927 -0.0228728 -0.328267)
(0.0827546 -0.0144935 -0.317895)
(0.103701 -0.0138247 -0.321045)
(0.08839 -0.0221498 -0.36199)
(0.103373 0.0112764 -0.0554514)
(-0.117252 0.0533369 -0.0922799)
(-0.00062354 -0.000777202 0.189606)
(0.359185 -0.047524 -0.0615972)
(-0.340209 -0.0272109 -0.102306)
(0.655355 -0.0766842 -0.132133)
(0.142528 -0.0485644 -0.263474)
(0.0987281 -0.0321602 -0.362218)
(0.0905476 -0.0308047 -0.348767)
(0.113716 -0.024412 -0.356149)
(0.103706 -0.0540109 -0.367763)
(0.134478 -0.0513938 -0.187187)
(-0.155412 0.011729 -0.0712407)
(-0.00355898 0.0247834 0.189476)
(0.389973 -0.00475922 -0.0733504)
(-0.356803 -0.224492 -0.0860732)
(0.777422 -0.0920046 -0.215233)
(0.00282312 -0.0259926 -0.243178)
(0.124686 -0.0793066 -0.284219)
(0.0948547 -0.0768535 -0.403096)
(0.112293 -0.0717118 -0.411098)
(-0.209532 0.18905 0.118965)
(0.539993 -0.0373047 -0.238667)
(0.242998 -0.105143 -0.248833)
(0.138777 -0.0744638 -0.255331)
(0.120177 -0.02376 -0.256028)
(0.0855698 -0.00918418 0.0316831)
(0.0521018 -0.00515096 -0.0149744)
(0.0493946 -0.00312991 0.0206786)
(0.0849324 0.00168172 -0.0432603)
(-0.0119367 0.0051893 0.0616726)
(0.0870632 0.0136024 0.0669901)
(0.260123 -0.00310017 0.0860639)
(-0.150331 -0.0222817 -0.160136)
(0.134474 -0.0211277 0.0680293)
(-0.00646024 -0.0128209 -0.04399)
(0.0880319 -0.00983084 0.0310155)
(0.055563 -0.00131142 -0.0189102)
(0.0538865 -0.000255827 0.026414)
(0.0840669 0.00581327 -0.0461645)
(-0.000561316 0.00610302 0.0788456)
(0.077346 0.0234065 0.0820675)
(0.253068 -0.0312323 0.0810186)
(-0.140156 -0.0192056 -0.167115)
(0.136266 -0.0248085 0.0527377)
(0.00204723 -0.0116267 -0.0369531)
(0.0922539 -0.0099884 0.0250813)
(0.0612269 -0.000654991 -0.0148898)
(0.0597219 0.000412641 0.0259065)
(0.088206 0.0107936 -0.033759)
(-0.00192951 0.00749951 0.0806267)
(0.0859409 0.0207912 0.0780287)
(0.268 -0.0299716 0.0757116)
(-0.141183 -0.018741 -0.157992)
(0.140149 -0.0221654 0.0525398)
(0.00615931 -0.0111797 -0.0401336)
(0.0977013 -0.0105068 0.0245102)
(0.0657375 -0.00169218 -0.0150338)
(0.0658056 -0.00015177 0.0246744)
(0.0900364 0.00867853 -0.0316541)
(0.00862798 0.0073708 0.0774307)
(0.081812 0.0251858 0.0786145)
(0.268243 -0.047966 0.0767293)
(-0.132133 -0.0131087 -0.164118)
(0.143533 -0.0244049 0.0479999)
(0.0138401 -0.0101172 -0.0354061)
(0.101405 -0.0117216 0.0235426)
(0.0712185 -0.000326499 -0.0149331)
(0.0692734 -0.000342615 0.0216902)
(0.0967248 0.013328 -0.0410834)
(0.0150957 0.00732857 0.0725508)
(0.0924689 0.0270309 0.0844868)
(0.268668 -0.0539537 0.0779776)
(-0.119729 -0.0142381 -0.152111)
(0.143742 -0.0238846 0.0482446)
(0.021219 -0.00853357 -0.0399592)
(0.107937 -0.0121782 0.0233694)
(0.0761865 3.2575e-05 -0.0141056)
(0.0753675 0.000601324 0.0140934)
(0.100441 0.0159365 -0.033763)
(0.0290412 0.0100577 0.0490945)
(0.0887442 0.0267271 0.0686023)
(0.268338 -0.0749162 0.0788844)
(-0.111585 -0.00387987 -0.168782)
(0.151836 -0.0159066 0.00655902)
(0.0299868 -0.00168878 -0.0328366)
(0.112288 -0.00982899 0.0287341)
(0.08284 0.00608936 -0.0167132)
(0.08091 0.00436357 0.0138174)
(0.0481819 0.00134699 -0.0231011)
(0.111242 -0.0160284 0.0286484)
(0.0922547 0.0142569 -0.0123809)
(0.501927 0.0583824 0.105534)
(0.502585 0.0302563 0.157502)
(0.25436 0.044876 -0.172452)
(-0.124295 -0.0938031 0.638493)
(0.0237716 0.0574594 -0.642691)
(0.159471 -0.0316663 0.0422852)
(0.712816 0.0162164 0.00466057)
(0.0332238 -0.0110825 -0.441726)
(-0.0669301 -0.0171447 0.517283)
(0.110696 0.0798942 -0.286225)
(0.680107 -0.00173365 0.0425867)
(0.406317 0.0463781 -0.0245459)
(0.110267 0.0554475 -0.391364)
(-0.017711 -0.122821 0.697146)
(-0.0283094 0.0339263 -0.733846)
(0.511173 0.0188004 0.0763577)
(0.372529 0.0773018 0.0625913)
(0.435022 0.0171708 0.0295541)
(-0.157092 0.00172912 -0.724054)
(0.0598792 -0.0515142 0.678337)
(0.0635246 -0.0233473 -0.70898)
(0.52693 -0.0168066 0.153689)
(0.315319 0.0492141 -0.195614)
(0.327995 -0.00163066 0.366261)
(-0.0801098 0.0171975 -0.1848)
(0.0363845 0.050454 -0.720257)
(-0.0282754 -0.0526546 0.684701)
(0.0587316 0.0084018 -0.75149)
(0.146106 -0.0132595 0.0772057)
(0.685945 0.0068378 0.0129644)
(0.174888 -0.0249029 0.211779)
(0.592881 -0.00486805 -0.131889)
(0.0681387 0.0923723 -0.670252)
(-0.054919 -0.0523251 0.598568)
(0.0454684 0.00844844 -0.6217)
(0.66737 0.00726836 0.0941725)
(0.440155 0.0330552 -0.0253963)
(0.573366 -0.0102057 -0.0502816)
(0.639953 0.00455405 0.00264801)
(-0.0199092 0.0192029 -0.6872)
(0.0590521 0.00127604 0.725115)
(-0.0308065 0.0108681 -0.71058)
(0.39017 0.070439 0.0410748)
(0.340821 0.0335753 0.0240177)
(0.615447 0.00367964 0.103423)
(0.245977 0.0267329 -0.011648)
(0.0864891 0.00394361 -0.751463)
(0.10102 -0.00553498 0.720907)
(0.0601798 0.0068365 -0.757123)
(0.283569 -0.00326207 0.373268)
(-0.0795725 0.00998689 -0.180081)
(0.231981 0.0346043 0.419994)
(-0.0802682 0.00926063 -0.179269)
(0.0539361 0.00765644 -0.757288)
(-0.03032 0.0745854 0.721008)
(0.0683911 -0.0198805 -0.758959)
(0.174569 -0.0155666 0.220829)
(0.612118 0.00403608 -0.12901)
(0.178596 0.0103056 0.180288)
(0.605158 -0.0297263 -0.128664)
(0.0548249 0.00748022 -0.706087)
(-0.0239297 0.0256354 0.664332)
(0.0576467 -0.0304069 -0.679825)
(0.58199 -0.00289223 -0.0463606)
(0.639052 0.00432049 0.00265015)
(0.596688 -0.0149966 -0.0416732)
(0.540505 -0.0144479 -0.000231122)
(-0.0375 0.0108078 -0.72171)
(0.0511206 0.0429659 0.701184)
(-0.0300723 -0.00343854 -0.737796)
(0.615315 0.00389497 0.101631)
(0.217187 0.00775613 -0.0114745)
(0.539125 0.0359956 0.020279)
(0.266116 -0.014344 -0.00139768)
(0.072302 0.00813907 -0.758541)
(0.0838693 0.00382932 0.73094)
(0.0665069 -0.00755913 -0.761936)
(0.222949 0.00657801 0.425537)
(-0.0756035 0.0113428 -0.18078)
(0.249866 0.0306256 0.417922)
(-0.0707381 0.0139167 -0.172697)
(0.0691169 -0.0171566 -0.62997)
(-0.0774182 0.0247022 0.752049)
(-0.0264238 -0.124067 -0.75939)
(0.188373 -0.0202392 0.0516273)
(0.635147 -0.0267658 -0.135906)
(0.280699 -0.000791138 -0.039507)
(0.704506 0.0505669 -0.0628863)
(0.0743733 -0.0379874 -0.64298)
(0.128652 0.00264236 0.518304)
(0.16797 -0.0329146 -0.337303)
(0.621165 -0.0189288 -0.0473076)
(0.538233 -0.0282136 0.0228984)
(-0.0236658 0.00108238 -0.6338)
(-0.0258985 0.0386359 0.701542)
(0.0285023 -0.103019 -0.736148)
(0.537232 0.0139538 0.040349)
(0.3144 -0.0326703 -0.00670484)
(0.560685 0.0513888 0.104084)
(0.0986964 0.00326964 -0.716929)
(0.0419308 0.0427452 0.773038)
(0.103164 0.0178836 -0.720254)
(0.267036 -0.00980716 0.395099)
(-0.0620695 0.0147086 -0.164975)
(0.53111 0.0653526 0.252159)
(-0.0569714 0.0247417 -0.18089)
(0.0201172 -0.122423 -0.295906)
(0.0775808 0.00694959 0.492779)
(0.0579052 -0.0469404 -0.358687)
(0.304296 0.00190413 -0.0718102)
(0.54516 -0.0578757 -0.271065)
(0.07365 0.00653045 -0.328525)
(0.0847613 -0.0225002 0.463225)
(0.0973716 -0.0100797 -0.390487)
(0.0979638 -0.0858863 -0.384145)
(0.0965839 0.0145311 0.449307)
(0.0919365 -0.00815352 -0.365531)
(0.545272 0.0358957 0.0879611)
(0.566696 -0.0289451 0.121964)
(-0.0119179 0.0865967 -0.68969)
(-0.0297896 0.0591222 0.721659)
(0.0307182 -0.0100985 -0.702393)
(0.528974 0.0490247 0.242065)
(0.058459 0.00464537 -0.216335)
(0.608194 0.0157393 0.18265)
(-0.0115502 0.0288154 -0.228526)
(0.0711375 -0.0272545 -0.350248)
(0.0699906 -0.124545 0.463304)
(0.0759824 0.0489501 -0.392595)
(0.62415 -0.0433096 -0.310931)
(0.495539 0.00325231 -0.304196)
(0.10456 -0.014421 -0.375741)
(0.0866873 -0.0600108 0.450299)
(0.113877 0.0307343 -0.387838)
(0.110939 -0.00254127 -0.376369)
(0.0953177 -0.0344563 0.41932)
(0.0428605 0.0641041 -0.33422)
(0.566135 -0.0280105 0.116633)
(0.547247 -0.0218393 0.215395)
(-0.0175399 -0.0853446 0.264498)
(0.579801 0.0117092 0.172522)
(0.533576 -0.0407492 0.254781)
(-0.0629303 0.0211188 -0.798622)
(-0.120602 -0.118608 0.719298)
(0.039019 0.0264452 -0.735467)
(-0.0149794 0.0744139 0.309384)
(0.217955 0.0787372 -0.268279)
(0.11125 -0.182851 0.354876)
(-0.0119539 -0.0440562 -0.341672)
(0.0798703 0.0619645 -0.42505)
(-0.00920845 -0.257357 0.685632)
(0.0143632 0.190349 -0.803591)
(0.345262 -0.014553 -0.167715)
(0.150576 -0.117789 0.214204)
(0.187054 0.272721 -0.312341)
(0.11243 0.0364838 -0.419769)
(0.0342571 -0.372259 0.380323)
(0.0633444 0.303672 -0.35152)
(0.152507 -0.322 0.0950743)
(0.227682 0.315904 -0.175146)
(0.105931 0.111186 -0.396475)
(-0.0257343 -0.314791 0.314083)
(0.0830028 0.259558 -0.532482)
(0.541633 -0.0192482 0.19861)
(0.16255 -0.275958 0.174803)
(-0.00233329 -0.00506302 -0.795827)
(0.0637844 0.453868 -0.764574)
(0.0575309 -0.24323 0.40227)
(0.0806558 -0.260921 -0.218965)
(0.0736693 0.245264 -0.371512)
(0.515349 0.092632 0.120763)
(0.554365 0.0673997 0.17866)
(0.177556 0.0414115 -0.125353)
(0.491857 0.114426 0.284553)
(0.0233023 -0.194811 0.348039)
(-0.00867356 -0.00896599 0.0066134)
(-0.0563332 -0.0119269 0.269989)
(0.338908 0.00180571 -0.246588)
(0.267741 0.00722894 -0.25377)
(0.405688 -0.000255219 -0.15744)
(0.517886 0.0575161 0.116935)
(0.426037 -0.04636 0.117436)
(0.211422 0.0624803 -0.126217)
(0.435059 -0.0341115 0.327823)
(0.0981036 0.0126482 -0.250083)
(0.482497 0.0367489 0.292953)
(0.280587 -0.0202366 0.309755)
(0.106537 0.0921877 -0.518221)
(0.0104475 0.00466881 0.170617)
(0.104292 0.0317617 -0.531681)
(-0.0119434 0.0308167 -0.00359911)
(0.0895138 0.0385595 -0.0306243)
(-0.039611 0.0164823 -0.0133346)
(0.0632621 0.020561 -0.0437824)
(0.337604 -0.0150279 -0.234503)
(-0.06409 -0.0133114 0.282316)
(0.200011 -0.0100403 -0.212278)
(0.25296 0.00873672 -0.237957)
(0.227355 -0.017299 -0.218711)
(0.232765 -0.0175682 0.0775425)
(0.599726 -0.0197068 -0.0598282)
(0.557824 -0.0281843 -0.0669013)
(0.38261 0.00725809 0.00692891)
(0.404411 -0.0266047 0.112054)
(0.391499 0.00724836 0.0645345)
(0.468442 0.00697969 0.116881)
(0.0947956 0.0115844 -0.252032)
(0.47309 0.0145404 0.283769)
(0.0868571 0.00893879 -0.235892)
(0.278493 -0.0338627 0.304558)
(0.207816 0.00702142 0.301742)
(0.0928497 0.0343457 -0.54302)
(0.015546 0.0126951 0.163945)
(0.096259 0.0163072 -0.53542)
(-0.0260829 0.0286355 -0.0157841)
(0.0692394 0.0264573 -0.0509035)
(-0.0399618 0.00439014 0.00121143)
(0.0782105 0.0161869 -0.0556847)
(0.196005 -0.00246752 -0.210188)
(-0.061445 -0.0192305 0.275249)
(0.229242 -0.00933401 -0.264066)
(0.227896 -0.0138795 -0.217668)
(0.22949 -0.0295887 -0.223194)
(0.642735 -0.0576861 -0.0354485)
(0.255752 0.00766303 0.026062)
(0.619383 0.0360355 -0.0978277)
(0.380973 0.00602491 0.00764029)
(0.541862 0.0340631 -0.0627594)
(0.541236 -0.0317896 0.0265621)
(0.461788 0.00071614 0.112169)
(0.518872 0.00993734 0.0614058)
(0.372988 0.0289091 0.123562)
(0.0911846 0.0109729 -0.235929)
(0.412974 0.0356123 0.317891)
(0.0922007 0.0100739 -0.233823)
(0.207327 -0.0013489 0.300639)
(0.277263 0.0724188 0.29564)
(0.0947994 0.0152705 -0.537013)
(0.0159655 0.0137823 0.164205)
(0.0918768 0.000656479 -0.539967)
(-0.0353104 0.0268346 0.00251255)
(0.0764836 0.0183041 -0.0562615)
(-1.63855e-05 -0.00446477 -0.00639352)
(0.069852 0.0082053 -0.0549987)
(0.270808 -0.0305929 -0.283594)
(-0.0580194 -0.0221766 0.259798)
(0.542601 -0.0474666 -0.277945)
(0.235505 -0.0307605 -0.229901)
(0.29646 -0.0599688 -0.279779)
(0.635407 0.0170107 -0.0874181)
(0.573437 -0.0442086 -0.231225)
(0.374944 0.0265845 0.12376)
(0.503809 -0.026709 0.147697)
(0.107721 0.00683848 -0.234381)
(0.529649 0.00752907 0.187901)
(0.128137 0.00742632 -0.239354)
(0.279291 0.0272258 0.304352)
(0.405372 0.0337377 0.338002)
(0.105138 0.00118078 -0.530085)
(0.0264452 0.0761107 0.163214)
(0.0949993 -0.0421495 -0.536739)
(-0.00173579 0.0151064 -0.00655534)
(0.0807471 0.012392 -0.0513065)
(-0.0246095 0.000917015 0.00736514)
(0.0729166 -0.000790828 -0.0430319)
(0.544242 -0.0429733 -0.277094)
(-0.00424729 -0.0200211 0.360955)
(0.608746 -0.0622267 -0.339517)
(0.29975 -0.0500625 -0.287657)
(0.253446 0.0837251 -0.207307)
(0.600746 -0.0611575 -0.335009)
(0.486306 -0.0200002 0.1617)
(0.181367 0.00408365 -0.245402)
(0.147775 0.0038824 -0.21363)
(0.398902 0.00539703 0.348844)
(0.115668 -0.0409645 -0.526897)
(0.141301 0.0331472 0.300061)
(0.175621 -0.0386288 -0.261903)
(-0.0248987 0.0199417 0.015968)
(0.0745852 0.00552119 -0.0305587)
(0.659857 -0.0390197 -0.362835)
(-0.104041 -0.0103577 0.0835382)
(0.605762 0.0228549 -0.394754)
(0.218297 0.0759323 -0.179246)
(-0.0408824 0.0338725 -0.0150165)
(0.662223 0.00496252 -0.373716)
(0.586685 -0.0117851 0.247202)
(0.0158119 -0.101628 -0.231937)
(0.0450816 -0.101414 -0.401591)
(0.164214 0.190159 -0.0382728)
(0.00798219 -0.357939 0.0430387)
(0.577483 0.0625477 -0.311473)
(0.115211 -0.158997 0.248622)
(0.16315 -0.0769937 -0.305228)
(-0.0919003 -0.0176164 -0.0406109)
(0.203996 -0.102998 0.163666)
(0.271592 0.091105 -0.288969)
(0.237969 -0.174315 0.0248382)
(0.314311 0.129435 -0.149487)
(0.259352 -0.13405 0.118255)
(0.00364878 -0.145295 -0.436814)
(0.131709 -0.0952353 -0.109563)
(0.2341 0.188082 -0.460835)
(0.559624 0.0352715 -0.0582945)
(0.220824 0.134097 -0.416339)
(0.112447 -0.324286 0.120388)
(0.172168 0.261929 -0.321736)
(1.0346 0.103414 -0.0639784)
(0.3625 -0.294861 -0.0758766)
(0.190195 0.37494 -0.0418968)
(0.232512 0.182776 -0.305721)
(0.0787206 -0.648473 0.230611)
(0.0949225 0.715073 -0.188479)
(0.986669 0.0779832 -0.0477964)
(0.772416 -0.0842599 0.0604374)
(0.213138 -0.495207 0.0792592)
(0.214775 0.418706 -0.119426)
(0.0520273 0.167766 -0.427667)
(0.490321 0.125866 -0.0244402)
(-0.0132879 0.0324874 -0.105601)
(0.0931126 -0.0704558 0.120164)
(0.592205 0.168658 -0.00735161)
(0.281614 0.137439 -0.194045)