/*--------------------------------*- C++ -*----------------------------------*\
  =========                 |
  \\      /  F ield         | OpenFOAM: The Open Source CFD Toolbox
   \\    /   O peration     | Website:  https://openfoam.org
    \\  /    A nd           | Version:  10
     \\/     M anipulation  |
\*---------------------------------------------------------------------------*/
FoamFile
{
    format      ascii;
    class       volVectorField;
    location    "0.05";
    object      U_0;
}
// * * * * * * * * * * * * * * * * * * * * * * * * * * * * * * * * * * * * * //

dimensions      [0 1 -1 0 0 0 0];

internalField   nonuniform List<vector> 
115408
(
(0.0402593 0.0032306 -0.00454575)
(0.0615499 0.000214337 0.00994788)
(0.0842505 -0.00830545 0.0290557)
(-0.00314211 0.00163264 -0.0525951)
(0.0544091 -0.0148335 0.1157)
(0.0820892 0.0047689 0.0324513)
(0.0124435 -0.0105492 -0.135929)
(0.0741829 -0.00538145 0.0606386)
(0.0056743 -0.0306974 0.00661501)
(0.0449111 0.00153534 -0.00502585)
(0.0502294 -0.0133441 0.0210867)
(0.0607152 0.0107391 0.00899556)
(0.0745486 0.0112767 0.0247993)
(0.0141821 -0.0211069 0.141331)
(0.0824355 -0.0292117 -0.00323212)
(0.0710681 -0.00332473 0.0206926)
(0.0719072 -0.000121886 0.016759)
(0.0618576 0.0271315 -0.11585)
(0.0445289 -0.027161 0.0606275)
(0.0849148 -0.0176088 -0.022347)
(0.0787405 -0.00084631 0.00478134)
(0.073175 0.00307691 0.00467017)
(0.096073 0.0242609 0.0118661)
(0.053273 -0.0189696 0.0193333)
(0.0868717 -0.00740457 -0.0257033)
(0.0902622 -0.00108995 0.00933934)
(0.0850606 0.00566021 -0.00458126)
(0.10221 0.0149047 0.0242738)
(0.059373 0.00280761 0.0274255)
(0.106899 -0.00372555 0.00834407)
(0.0961911 0.00419899 0.00593633)
(0.0900244 0.00745905 0.00316889)
(0.109613 0.0120797 0.0122669)
(0.127631 0.0101516 0.0258072)
(0.102823 0.0151527 0.0135112)
(0.0840052 0.0087206 -0.13335)
(-0.00886932 0.0558801 0.497355)
(0.138366 -0.134391 0.477063)
(0.0711255 -0.0781937 0.51418)
(-0.405902 0.134073 0.027874)
(0.274382 -0.0443818 0.0103274)
(0.0944983 0.0579156 -0.0456991)
(0.0950026 -0.160687 0.052196)
(-0.214081 0.0602312 -0.0851671)
(0.451426 0.0412604 0.533452)
(-0.263838 -0.0512979 -0.00128672)
(0.194205 0.0156347 -0.0359839)
(-0.0372362 0.171508 -0.0209514)
(0.117069 -0.0739493 -0.0539239)
(0.161649 -0.110467 -0.0355022)
(-0.0166507 0.210075 0.0361173)
(0.0979987 -0.143317 -0.0324001)
(0.0840706 -0.00937785 -0.0471477)
(0.0746122 0.167837 -0.0284527)
(-0.0240818 -0.195763 -0.00725387)
(0.0558843 0.113094 -0.00853792)
(0.115039 -0.0111996 -0.0404439)
(0.274333 0.143925 -0.00933554)
(-0.389336 -0.0611813 -0.0428322)
(0.34711 0.448105 0.443684)
(0.0662362 0.41181 0.41182)
(0.00188722 0.539967 0.447834)
(-0.315647 0.0528571 0.0162592)
(0.142939 -0.14262 -0.0561284)
(0.0380727 0.106546 -0.0554462)
(-0.239649 0.178139 -0.0914753)
(0.211893 0.460814 0.432439)
(0.105503 0.0169916 0.469288)
(0.0640057 0.13685 0.513858)
(0.0308827 0.0398736 0.535222)
(-0.0290819 0.703065 0.458915)
(-0.349287 -0.177569 0.0311602)
(0.276414 0.114476 -0.00820438)
(-0.251772 -0.0337597 -0.0776267)
(0.370072 0.0989041 0.434606)
(0.163032 0.0186279 0.436403)
(0.0616813 0.0401715 0.506115)
(0.0622261 0.0447842 0.517089)
(0.0585334 0.131475 0.577999)
(-0.295155 -0.142173 -0.106914)
(0.475751 -0.120383 0.388258)
(0.240056 -0.0517006 0.401879)
(-0.0462625 0.00134913 0.507816)
(0.0701242 3.6329e-05 0.492768)
(0.0969639 -0.165692 0.509292)
(0.176448 -0.0526994 0.0165604)
(-0.293954 0.0625446 -0.0866401)
(0.56628 -0.0265188 0.428402)
(0.189685 -0.055142 0.433181)
(-0.312048 -0.0540148 0.0294411)
(0.115703 -0.142243 -0.0051512)
(0.127341 -0.00684296 -0.00481134)
(0.130913 0.00401743 0.00715082)
(0.0784595 0.0714097 0.678012)
(0.0895969 0.0364767 0.752629)
(-0.0568771 0.0611197 0.30979)
(-0.014766 0.00386341 0.766622)
(0.202113 -0.209659 0.499261)
(-0.479545 0.193845 -0.0775241)
(0.386611 -0.0631443 0.0433992)
(-0.30501 -0.0118556 0.0881701)
(0.276473 0.0233292 0.499348)
(-0.00574201 0.00332278 0.608352)
(0.0305717 0.0804959 0.47703)
(0.111621 0.0858014 0.361468)
(-0.00518864 0.0784297 0.769283)
(0.0549436 0.0715272 0.534945)
(0.116772 0.0795135 0.661902)
(-0.131165 -0.143931 0.00925839)
(-0.0428386 0.185751 -0.114875)
(0.21241 -0.0219522 0.0151478)
(-0.294999 0.00438113 0.0760277)
(0.261898 -0.023685 0.515388)
(-0.0225753 0.0112381 0.538707)
(0.039487 -0.0272604 0.553011)
(0.0482044 0.0300861 0.560525)
(0.0562506 0.0400159 0.585052)
(0.0541872 -0.0119851 0.562769)
(0.12212 0.0431983 0.701906)
(-0.201032 0.0184891 -0.0174677)
(0.0105637 0.0235915 -0.111704)
(0.244571 0.0250728 0.0455045)
(-0.275793 -0.0474496 0.0517269)
(0.275516 -0.0195695 0.586857)
(-0.0441793 -0.0575187 0.457812)
(0.112791 -0.0848552 0.274587)
(0.0858522 -0.0557558 0.409639)
(0.0266574 -0.0546247 0.278482)
(-0.0361174 -0.0177024 0.763623)
(0.126296 -0.00597248 0.577469)
(-0.127694 0.181321 0.0293817)
(-0.031798 -0.158704 -0.136115)
(0.226297 0.136048 0.0382263)
(-0.282775 -0.0345835 0.153766)
(0.283782 -0.0314671 0.422873)
(0.0674198 -0.0670854 0.300559)
(0.137912 -0.0351217 0.556323)
(0.0749699 -0.00663193 0.614815)
(0.0520537 -0.0135761 0.562373)
(-0.042189 -0.0145538 0.182885)
(-0.0169875 -0.0549192 0.805997)
(0.00855528 0.813942 0.438732)
(-0.401942 -0.153985 -0.086929)
(-0.195108 -0.158458 0.103304)
(0.274522 -0.0880233 0.430004)
(0.0565903 -0.0133837 0.312015)
(0.196472 -0.00702374 0.652965)
(0.09887 0.00255428 0.601201)
(0.0771147 -0.000975258 0.573289)
(0.0109279 0.0310233 0.465394)
(0.00454161 -0.202325 0.314001)
(0.110192 -0.0166001 0.397252)
(0.266229 -0.00541977 0.71096)
(0.0664132 -0.0079323 0.649956)
(0.072916 -0.0047212 0.617941)
(-0.0214916 0.0343953 0.316989)
(0.0432108 -0.0477898 0.592161)
(0.151277 -0.0438314 0.429458)
(0.216096 -0.088063 0.390768)
(0.125737 -0.0631883 0.351182)
(-0.0656409 -0.0165656 0.732109)
(0.246233 -0.274172 0.465884)
(0.191228 -0.170708 0.437033)
(0.115516 -0.132178 0.466411)
(0.094239 -0.0132065 0.642609)
(0.0310289 -0.0567767 0.628625)
(-0.0886392 -0.00410852 0.74104)
(-0.0211079 -0.164732 0.81745)
(0.262927 0.0528541 0.368785)
(-0.210578 -0.0892236 0.0624029)
(0.256315 0.182689 -0.0136056)
(0.0709572 0.0232903 0.0329057)
(0.0144206 -0.00600747 0.67337)
(0.0828171 -0.0125803 0.369923)
(0.0376676 -0.0378021 0.738097)
(-0.0550897 -0.0685938 0.692975)
(-0.0208631 -0.0319413 0.657277)
(0.0307432 -0.0375583 0.714338)
(0.101076 -0.0328891 0.721243)
(-0.152082 0.017233 0.359693)
(0.0214324 -0.00550249 0.854897)
(-0.350505 -0.0163644 -0.127682)
(0.37299 0.0185002 0.0123328)
(0.0839441 -0.023567 0.0572407)
(0.029821 -0.0178351 0.659666)
(0.087517 -0.0182701 0.372166)
(0.0543714 -0.00532457 0.72227)
(-0.0295439 -0.0333587 0.723529)
(-0.0174226 -0.0382684 0.703432)
(0.0268689 0.0241578 0.709516)
(0.0930133 9.78782e-05 0.737807)
(-0.139551 0.0182682 0.351849)
(0.0172926 0.0160106 0.834669)
(-0.300047 0.0103754 -0.092764)
(0.353288 0.0650637 0.0262017)
(0.0988148 -0.0726213 0.0760084)
(0.0277624 -0.0369488 0.650248)
(0.0896942 -0.0297814 0.366079)
(0.0590589 0.00570587 0.694319)
(-0.0949088 0.0653699 0.662008)
(0.0188521 0.0859535 0.586261)
(0.0456035 0.035596 0.58032)
(0.101327 0.00841996 0.748228)
(-0.140584 0.039256 0.330674)
(0.0261387 0.0656597 0.868344)
(-0.305129 0.048067 -0.124186)
(0.366093 0.00975172 0.0129827)
(0.0311475 -0.0724288 0.0188272)
(0.0572013 -0.0667541 0.683109)
(0.109146 -0.0247014 0.312388)
(-0.0145167 -0.0178095 0.658324)
(-0.147985 0.0429407 0.580188)
(0.0956282 0.0230355 0.481114)
(0.0360254 0.119308 0.395194)
(-0.0627789 0.0529184 0.718612)
(-0.0811661 0.415159 0.685405)
(0.215224 0.0994692 0.259557)
(-0.250629 0.0775428 0.0838933)
(0.0576756 -0.0899132 0.635904)
(0.0937418 -0.0212183 0.341018)
(0.021481 -0.0458698 0.753687)
(0.0714545 0.0262615 0.465438)
(0.0948236 -0.0147507 0.436568)
(0.0937128 0.00844174 0.426093)
(-0.0477918 0.083723 0.211469)
(-0.170824 0.0909113 0.531525)
(-0.15979 -0.103227 0.798207)
(0.0433778 -0.113725 0.533205)
(0.0301415 -0.0525928 0.547231)
(0.0903795 -0.041661 0.47114)
(-0.127632 -0.0975406 0.8133)
(-0.0221816 -0.165069 0.735059)
(-0.02017 -0.331108 0.648162)
(0.0019251 -0.286384 0.642197)
(0.18754 -0.259842 0.612675)
(0.253947 -0.301396 0.36965)
(0.0347116 -0.0969191 0.518883)
(0.571814 0.0200621 0.200476)
(0.0417521 -0.0630781 0.162978)
(-0.0391025 0.0485093 0.0902963)
(-0.151334 0.000644906 0.0232287)
(0.274161 0.0888619 -0.0181846)
(0.149755 -0.0278535 -0.122295)
(0.0375041 0.0136756 0.300353)
(-0.126381 -0.00504236 0.191583)
(-0.0624879 -0.0102047 0.273601)
(0.392218 -0.00866659 -0.133489)
(0.418196 -0.0318094 0.316972)
(0.0109801 0.0101874 0.161859)
(-0.0462242 -0.0165225 0.145402)
(-0.253061 0.0105179 0.0316804)
(0.332395 0.0138866 -0.0262549)
(0.19868 -0.0177796 -0.0989927)
(0.0142414 -0.0194767 0.308491)
(-0.113605 -0.0168046 0.194735)
(-0.0645667 -0.0138946 0.284096)
(0.231283 -0.0114779 0.0893291)
(0.59218 -0.0670299 -0.0475693)
(0.389307 0.00647708 0.0650323)
(0.470132 0.00566886 0.27973)
(0.0177313 0.0136372 0.159059)
(-0.0378607 0.00787871 0.148224)
(-0.205602 0.0258016 0.0415828)
(0.319068 0.0250236 -0.0212048)
(0.191631 -0.0545114 -0.100071)
(0.0199691 -0.0398924 0.307679)
(-0.110163 -0.0294181 0.191731)
(-0.0554231 -0.0195955 0.27097)
(0.282255 -0.0118059 -0.0615893)
(0.569057 0.0175296 -0.0570575)
(0.582589 0.0302604 0.0421755)
(0.41675 0.0260581 0.312178)
(0.0183718 0.0178526 0.157024)
(-0.0332862 0.0342493 0.140863)
(-0.248042 0.0165801 0.0398329)
(0.340701 0.0712771 -0.0471946)
(0.146065 -0.0319233 -0.0852)
(0.0539279 -0.0692092 0.301738)
(-0.112091 -0.040653 0.1768)
(-0.0792136 -0.0174581 0.235444)
(0.583294 -0.0403471 -0.23173)
(0.516006 -0.00163046 0.194467)
(0.0213044 0.0704273 0.0797245)
(-0.00940558 0.0462055 0.0445251)
(0.0949451 -0.120862 0.276823)
(-0.129263 -0.0547491 0.116669)
(-0.007472 -0.027149 0.377517)
(0.66611 -0.0366146 -0.360914)
(0.180671 0.161299 0.262035)
(-0.019954 0.168599 0.367455)
(0.620069 0.0505458 -0.314056)
(0.0899724 -0.181268 0.257564)
(0.143677 -0.175096 0.35036)
(0.178551 -0.225806 0.170642)
(0.149088 -0.182535 0.10671)
(0.079227 -0.285033 0.286285)
(0.307822 -0.0600734 -0.234742)
(0.0328779 0.054774 0.0571938)
(0.097531 0.0882663 -0.0107224)
(-0.104425 -0.0411031 0.0406778)
(0.241881 0.145368 -0.0656462)
(0.246586 -0.0258895 0.00973685)
(-0.145535 0.045739 0.102349)
(-0.348205 0.0336126 0.100861)
(0.286206 0.0220839 -0.312631)
(0.0216815 0.0351457 0.0480039)
(0.107206 0.0222713 0.0168873)
(-0.212902 0.000908008 0.0122805)
(0.349816 0.0136329 -0.00114683)
(0.297242 -0.000947425 -0.00693681)
(-0.192107 -0.0150691 0.107473)
(-0.340357 -0.0133442 0.110033)
(0.270046 -0.0127673 -0.324629)
(-0.0141062 0.0277492 0.0395448)
(0.116502 0.01065 0.0258592)
(-0.141715 0.0193116 0.0319855)
(0.312707 0.0428196 -0.0424418)
(0.296476 -0.0582617 0.00209221)
(-0.191007 -0.0525141 0.105063)
(-0.338489 -0.0491133 0.101976)
(0.277913 -0.0340139 -0.322009)
(0.0332879 0.0355776 0.0493636)
(0.124722 0.0184369 0.0132662)
(-0.198819 0.0354293 0.0050328)
(0.350692 0.0553733 0.0095311)
(0.230091 -0.0233052 0.00337996)
(-0.116647 -0.0902387 0.0925851)
(-0.322238 -0.0966618 0.0680682)
(0.320539 -0.049586 -0.274492)
(0.0474933 0.0388878 0.0501939)
(0.150357 -0.00812349 -0.0135468)
(-0.0417754 -0.153677 0.0704003)
(-0.202353 -0.150073 0.0519935)
(0.22802 0.128579 -0.159929)
(0.227927 0.20707 0.00261152)
(-0.174657 -0.00809133 -7.51052e-05)
(0.1977 -0.266427 0.0912154)
(0.134592 -0.359479 0.217097)
(0.137084 -0.0230149 0.12558)
(0.0498199 0.0670954 -0.0255729)
(-0.221875 0.0698029 -0.0822606)
(0.149023 -0.0557411 0.0845659)
(0.0594457 0.0638337 -0.0810272)
(0.0694556 0.0530518 -0.110172)
(-0.268896 0.0032444 -0.0504798)
(0.327622 0.0202543 -0.00165817)
(0.199558 -0.0161109 0.122124)
(-0.0261478 0.0345765 -0.0621242)
(-0.235829 0.0528994 -0.118181)
(0.24377 -0.0215921 0.19903)
(0.0696025 0.0207181 -0.0361171)
(0.103759 0.0313095 -0.122356)
(-0.258905 0.0209122 -0.0532193)
(0.333311 0.039341 0.0425377)
(0.214521 -0.0256073 0.117094)
(-0.037685 -0.0185293 -0.0730176)
(-0.230722 -0.0152024 -0.136447)
(0.220778 -0.0223698 0.196736)
(0.00507021 0.0244321 -0.00467262)
(0.114079 0.0129779 -0.119686)
(-0.239848 0.0182446 -0.0416136)
(0.335651 0.0359384 0.00954786)
(0.218676 -0.0438421 0.112476)
(-0.0280113 -0.0644251 -0.0696379)
(-0.222733 -0.0796116 -0.120596)
(0.257716 -0.00503918 0.195968)
(0.0615115 -0.0018143 -0.0283018)
(0.121378 0.00597273 -0.118514)
(-0.250489 0.0101374 -0.052521)
(0.340431 0.0409964 0.0393668)
(0.143819 -0.0313039 0.140819)
(0.0430322 -0.0854348 -0.0573664)
(-0.187366 -0.0934128 -0.101435)
(0.218871 0.0175086 0.121304)
(0.26339 0.0137279 -0.145997)
(0.1199 -0.0139632 -0.104191)
(0.103195 -0.125652 -0.0470428)
(-0.158561 -0.0953994 -0.0658883)
(0.23992 -0.0114829 0.0282364)
(-0.13154 -0.00761984 -0.0626756)
(-0.0282171 -0.147532 -0.154411)
(0.145659 -0.134026 -0.202681)
(0.765302 -0.0754103 0.0405298)
(-0.0734223 -0.539137 -0.320673)
(-0.0786562 -0.569101 -0.319086)
(-0.0529982 0.361803 -0.218749)
(0.135672 0.0914074 -0.260261)
(-0.409296 -0.018829 0.196723)
(0.0763062 0.0395066 -0.0377509)
(0.281607 0.0392602 -0.178899)
(-0.0885509 0.101464 -0.206048)
(0.177461 0.0862265 -0.303877)
(-0.117889 0.115833 -0.316486)
(0.129178 0.0339869 -0.178275)
(0.135666 0.0166951 -0.235225)
(-0.000944098 0.380241 -0.286219)
(0.0599755 0.224311 -0.285307)
(0.26905 0.0294055 -0.232076)
(-0.312758 -0.0026258 0.244649)
(0.107274 -0.0341993 -0.0566117)
(0.223346 0.0466673 -0.181209)
(-0.304546 0.224695 -0.247476)
(-0.0631793 -0.0409272 -0.290402)
(0.0942012 0.010653 -0.220227)
(0.201023 0.00614373 -0.0586918)
(0.233933 -0.0234686 -0.315021)
(0.124979 0.00368109 -0.262207)
(0.042604 0.0483144 -0.328674)
(0.263429 0.0188479 -0.256356)
(-0.352012 0.0114407 0.224102)
(0.142661 -0.010156 -0.0468512)
(0.183754 -0.0232077 -0.189834)
(-0.321287 -0.0130721 -0.235109)
(0.0749545 -0.0117218 -0.295675)
(0.134732 -0.0111437 -0.151413)
(0.253409 0.00492818 -0.0554263)
(0.359158 0.0109602 -0.186652)
(0.131838 0.00670398 -0.24095)
(0.0229525 0.0149758 -0.259077)
(0.272533 0.0163026 -0.261387)
(-0.307519 0.0195774 0.232575)
(0.127102 -0.035066 -0.0621272)
(0.212521 -0.0791396 -0.186051)
(-0.29431 -0.243254 -0.246708)
(-0.0777722 -0.0236721 -0.295622)
(0.113029 -0.0131369 -0.203956)
(0.207133 -0.0309378 -0.15959)
(0.252891 -0.0172061 -0.21163)
(0.131076 0.0229592 -0.275724)
(0.00949871 0.0108091 -0.341921)
(0.274387 0.021603 -0.25628)
(-0.331812 0.0237473 0.227479)
(0.0763507 -0.0364307 -0.048524)
(0.30144 -0.0813457 -0.18866)
(-0.0726935 -0.112735 -0.21805)
(0.204491 -0.0491003 -0.304489)
(0.14521 -0.124642 -0.297108)
(0.153515 -0.0290889 -0.159035)
(0.157783 -0.0105412 -0.230113)
(-0.0144708 -0.274754 -0.400243)
(0.0641628 -0.103894 -0.254162)
(0.305252 0.00843618 -0.206288)
(-0.288331 0.0450801 0.222003)
(0.0453577 -0.090137 -0.074705)
(0.363585 -0.0888902 -0.178191)
(0.012539 -0.0769161 -0.260961)
(0.175644 -0.103856 -0.363641)
(0.014614 -0.103873 -0.408178)
(0.0134291 -0.17406 -0.392824)
(0.184583 -0.176364 -0.313475)
(0.132553 -0.0405245 -0.263559)
(-0.376019 -0.141065 -0.326001)
(0.0990263 -0.179413 -0.378229)
(0.0314739 -0.147824 -0.35192)
(0.0443025 -0.116375 -0.369905)
(-0.161666 -0.390667 -0.457131)
(-0.0372005 -0.349944 -0.502595)
(0.0976408 0.138239 -0.273357)
(0.0521439 0.0963062 -0.425693)
(0.0755511 0.101531 -0.426736)
(0.0319619 0.104481 -0.136226)
(0.156722 0.256322 -0.192768)
(-0.187887 0.0316221 -0.0965735)
(-0.0318131 0.00427855 0.184516)
(0.351655 -0.00325811 -0.0543172)
(-0.363471 -0.0419344 -0.110972)
(0.654685 0.137364 -0.120091)
(0.127618 0.0664293 -0.267825)
(0.0752058 0.0402084 -0.368176)
(0.05995 0.0383548 -0.35414)
(0.0854678 0.0441048 -0.350934)
(0.0666973 0.0614129 -0.383935)
(0.112486 0.043448 -0.168701)
(-0.142936 -0.00641553 -0.096587)
(-0.0149991 0.0306159 0.19934)
(0.382957 -0.0265085 -0.0410588)
(-0.301412 -0.00968167 -0.104507)
(0.56117 0.0620652 -0.113031)
(0.159489 0.0277492 -0.235699)
(0.0776799 0.0156472 -0.333438)
(0.0711975 0.0135557 -0.326863)
(0.0903197 0.0185473 -0.319499)
(0.090523 0.0225732 -0.36045)
(0.0800139 0.029703 -0.0621251)
(-0.12211 0.0298198 -0.0944881)
(-0.0188944 0.00727791 0.194654)
(0.375686 -0.0316269 -0.0517471)
(-0.288261 -0.022015 -0.11154)
(0.555116 -0.00997564 -0.108846)
(0.172892 -0.00719883 -0.229726)
(0.0875953 -0.0059038 -0.323539)
(0.0791354 -0.00117827 -0.31619)
(0.0964795 0.000831101 -0.314947)
(0.0935427 0.00617626 -0.354114)
(0.0827814 0.0108785 -0.0567708)
(-0.12225 0.0155954 -0.0867698)
(-0.00650274 0.0222246 0.199933)
(0.392303 -0.0452118 -0.0595439)
(-0.30036 -0.0295613 -0.101286)
(0.566111 -0.0691253 -0.117117)
(0.166407 -0.0325237 -0.237105)
(0.0878339 -0.0228786 -0.332002)
(0.0834265 -0.0144527 -0.321051)
(0.103711 -0.0137727 -0.324875)
(0.0891662 -0.0221221 -0.365048)
(0.102812 0.0111209 -0.0558269)
(-0.120894 0.0533748 -0.0903315)
(0.00261387 -0.000571019 0.189119)
(0.358296 -0.0472754 -0.0634653)
(-0.341082 -0.0270828 -0.0994073)
(0.657843 -0.076893 -0.136016)
(0.142736 -0.0484986 -0.267083)
(0.0981419 -0.0324732 -0.365783)
(0.0912244 -0.0310156 -0.351836)
(0.113906 -0.0246256 -0.359919)
(0.104831 -0.0542658 -0.370985)
(0.133835 -0.0512715 -0.188608)
(-0.158991 0.01126 -0.0695247)
(-0.000588309 0.0252017 0.188918)
(0.389486 -0.00349119 -0.0752095)
(-0.358526 -0.225815 -0.0831208)
(0.781767 -0.0916521 -0.219705)
(0.00210016 -0.0263453 -0.244935)
(0.123911 -0.0793818 -0.288045)
(0.0954287 -0.077224 -0.406346)
(0.112917 -0.0720448 -0.415175)
(-0.213182 0.190331 0.117067)
(0.545403 -0.0373769 -0.239718)
(0.243463 -0.104874 -0.250815)
(0.13955 -0.0744045 -0.256913)
(0.120591 -0.0238361 -0.258068)
(0.0852141 -0.00902592 0.0301108)
(0.0524067 -0.0051473 -0.0132233)
(0.0497819 -0.00287811 0.0190346)
(0.0843899 0.00172025 -0.0413784)
(-0.0111291 0.00531955 0.0590539)
(0.0856296 0.0137403 0.0686247)
(0.258405 -0.00345747 0.0859477)
(-0.149124 -0.0221901 -0.159773)
(0.133772 -0.0210629 0.0659913)
(-0.00534904 -0.012878 -0.041487)
(0.0877029 -0.00962836 0.0295051)
(0.0558717 -0.00143548 -0.0172081)
(0.0542537 -7.69153e-05 0.0248116)
(0.0835758 0.00576103 -0.044363)
(0.000286393 0.00619632 0.0761229)
(0.0758168 0.0234523 0.0837984)
(0.251408 -0.031324 0.08113)
(-0.138964 -0.0191113 -0.166768)
(0.135532 -0.0247312 0.0507349)
(0.00311951 -0.0116587 -0.0345478)
(0.0918937 -0.00986708 0.0237059)
(0.0615187 -0.000756065 -0.0133453)
(0.0601346 0.000543344 0.0243799)
(0.0876472 0.0107332 -0.0321133)
(-0.000875353 0.00757279 0.0778894)
(0.0842082 0.0208327 0.0796853)
(0.266247 -0.0300921 0.0757105)
(-0.139854 -0.0187533 -0.157625)
(0.139354 -0.0221508 0.0505125)
(0.00733914 -0.011284 -0.0377275)
(0.0973243 -0.010384 0.0231885)
(0.0660603 -0.00181309 -0.0135489)
(0.0662039 7.62316e-06 0.0232318)
(0.0895125 0.00856825 -0.0301117)
(0.00959547 0.00751076 0.0747858)
(0.0801606 0.0250905 0.080221)
(0.26655 -0.0478161 0.0768111)
(-0.130814 -0.0132757 -0.163808)
(0.142714 -0.0243477 0.0460959)
(0.0150163 -0.0102809 -0.033118)
(0.101039 -0.0116073 0.0223132)
(0.0715525 -0.000469254 -0.0135209)
(0.0697084 -0.000202259 0.0203476)
(0.0961251 0.0131768 -0.0395217)
(0.0161564 0.00746738 0.0699667)
(0.090635 0.0269503 0.0861067)
(0.266939 -0.0537081 0.0778227)
(-0.118461 -0.0144745 -0.151794)
(0.142945 -0.0237509 0.0465026)
(0.0224295 -0.00874816 -0.0377611)
(0.107583 -0.012084 0.0222331)
(0.0765484 -0.000178768 -0.012799)
(0.0758127 0.000737706 0.0129023)
(0.0998525 0.0157072 -0.0323558)
(0.0299577 0.0102411 0.0467871)
(0.0871242 0.0265741 0.0700388)
(0.26665 -0.0746023 0.0788643)
(-0.110249 -0.00416265 -0.16864)
(0.151011 -0.0157278 0.0052231)
(0.0311021 -0.00204666 -0.0307759)
(0.111903 -0.00978264 0.0276045)
(0.0832205 0.00583679 -0.0155258)
(0.0813478 0.00438921 0.0126017)
(0.0490655 0.000902639 -0.020981)
(0.111033 -0.0158911 0.0276737)
(0.0925473 0.0139256 -0.0113774)
(0.503028 0.0601922 0.102571)
(0.503292 0.0310746 0.155416)
(0.255757 0.0456138 -0.174504)
(-0.126489 -0.0939468 0.646174)
(0.0235315 0.0570384 -0.64955)
(0.155967 -0.0328504 0.0449826)
(0.714959 0.0163751 0.00877164)
(0.0327306 -0.01093 -0.448402)
(-0.0670976 -0.0168757 0.523114)
(0.109366 0.079906 -0.288687)
(0.680578 -0.00263062 0.0439421)
(0.405307 0.0473739 -0.025351)
(0.109109 0.0554222 -0.397381)
(-0.0187272 -0.122463 0.707036)
(-0.030148 0.0335884 -0.741961)
(0.513696 0.0180653 0.0712765)
(0.371048 0.0785785 0.0638729)
(0.433965 0.0190022 0.0286285)
(-0.15977 0.00253277 -0.732923)
(0.059815 -0.0525798 0.687833)
(0.0648563 -0.0227675 -0.717356)
(0.528757 -0.0181542 0.151408)
(0.318134 0.0496248 -0.197912)
(0.32767 -0.000875691 0.37082)
(-0.0838568 0.0172261 -0.186775)
(0.0354226 0.0504416 -0.729037)
(-0.0296854 -0.052901 0.693905)
(0.0579393 0.00851852 -0.760565)
(0.14302 -0.0133759 0.0800033)
(0.687578 0.0069866 0.0182079)
(0.173527 -0.0250102 0.216325)
(0.592835 -0.00481668 -0.134277)
(0.0668755 0.0925602 -0.679317)
(-0.0558833 -0.052509 0.607094)
(0.0442366 0.00851644 -0.629896)
(0.668147 0.00690077 0.0987017)
(0.439721 0.0338703 -0.0262845)
(0.573569 -0.0102408 -0.050006)
(0.641625 0.00446844 0.00210024)
(-0.0219064 0.0191451 -0.695573)
(0.0576769 0.00126339 0.735181)
(-0.032947 0.0109647 -0.71904)
(0.388635 0.0718289 0.041816)
(0.337556 0.0347518 0.0223679)
(0.616442 0.00361356 0.104455)
(0.241705 0.0283035 -0.0137063)
(0.0873932 0.00442367 -0.760763)
(0.101125 -0.0056594 0.731174)
(0.0610665 0.00699572 -0.766145)
(0.283141 -0.00316939 0.377734)
(-0.0836673 0.0100227 -0.181939)
(0.231448 0.0346384 0.425241)
(-0.0845608 0.00928735 -0.181279)
(0.0529942 0.00767987 -0.766383)
(-0.0319226 0.0755094 0.73089)
(0.0673455 -0.0202677 -0.76838)
(0.173183 -0.0156702 0.225444)
(0.611776 0.00431684 -0.13142)
(0.177184 0.011096 0.184923)
(0.606417 -0.0294363 -0.130256)
(0.0533881 0.00766499 -0.715501)
(-0.0249185 0.0255791 0.674049)
(0.0562598 -0.0301899 -0.689204)
(0.581742 -0.00289651 -0.0462136)
(0.640705 0.0042688 0.00208094)
(0.59762 -0.0149066 -0.0412694)
(0.542366 -0.0145881 -0.00233863)
(-0.0396839 0.01093 -0.730626)
(0.0495734 0.0433888 0.711748)
(-0.0323786 -0.00357166 -0.746922)
(0.61631 0.00384671 0.102634)
(0.21305 0.00834838 -0.0134563)
(0.540279 0.0370038 0.0176737)
(0.262439 -0.0135435 -0.00384678)
(0.0732702 0.00818978 -0.767607)
(0.0837453 0.00430274 0.741352)
(0.067363 -0.00790021 -0.770984)
(0.222639 0.00656511 0.430732)
(-0.0799149 0.0113605 -0.182823)
(0.24958 0.0310582 0.422849)
(-0.07501 0.0140127 -0.174668)
(0.068405 -0.0175268 -0.637722)
(-0.0795271 0.0251074 0.761361)
(-0.026928 -0.124255 -0.769041)
(0.18653 -0.0199762 0.0543517)
(0.636155 -0.0264189 -0.13737)
(0.276781 -0.000497707 -0.0377278)
(0.706203 0.0533238 -0.0639612)
(0.0733743 -0.0375272 -0.651342)
(0.128772 0.00233849 0.523492)
(0.167124 -0.0330518 -0.343318)
(0.622264 -0.0193384 -0.046607)
(0.539774 -0.028591 0.0224864)
(-0.0257057 0.000968686 -0.641662)
(-0.0271268 0.0382442 0.71201)
(0.0268989 -0.102986 -0.745507)
(0.538642 0.0144222 0.0389404)
(0.310991 -0.0341121 -0.00900906)
(0.562738 0.0528913 0.104698)
(0.0997798 0.00288912 -0.725414)
(0.0413535 0.0432624 0.782763)
(0.104321 0.0173791 -0.728852)
(0.26663 -0.00984759 0.399736)
(-0.0661633 0.0148194 -0.166954)
(0.532083 0.0664326 0.254693)
(-0.0608905 0.0245491 -0.182472)
(0.0199894 -0.122045 -0.298552)
(0.0772665 0.00617122 0.496936)
(0.058041 -0.0469775 -0.364777)
(0.300154 0.00253544 -0.0701499)
(0.546784 -0.0579426 -0.271753)
(0.07286 0.00608052 -0.334113)
(0.0847536 -0.0222231 0.468109)
(0.0971157 -0.0102135 -0.396466)
(0.0967123 -0.0856625 -0.388571)
(0.0968148 0.0145167 0.454287)
(0.0905042 -0.00795757 -0.371491)
(0.546611 0.0371518 0.0883604)
(0.566386 -0.0295918 0.121526)
(-0.0132231 0.0863817 -0.697848)
(-0.0303701 0.0589282 0.731623)
(0.0294461 -0.0105672 -0.710578)
(0.529625 0.0496833 0.245126)
(0.0558706 0.00498418 -0.21876)
(0.607065 0.0169042 0.183459)
(-0.0148219 0.0285079 -0.231529)
(0.0712715 -0.0272251 -0.355899)
(0.0693985 -0.124786 0.468423)
(0.0760656 0.0499789 -0.398693)
(0.626447 -0.0429886 -0.312429)
(0.497163 0.00413983 -0.305675)
(0.104367 -0.0144848 -0.381463)
(0.0867457 -0.060229 0.455218)
(0.113698 0.0314226 -0.393492)
(0.110556 -0.00276605 -0.382043)
(0.0955281 -0.034703 0.424329)
(0.0420042 0.064159 -0.339356)
(0.565226 -0.0304675 0.116479)
(0.545345 -0.0206821 0.216055)
(-0.0170343 -0.0854899 0.26661)
(0.577403 0.0116429 0.17334)
(0.531756 -0.0405398 0.256337)
(-0.0634376 0.022731 -0.807315)
(-0.121348 -0.119868 0.727636)
(0.0379222 0.0278303 -0.743101)
(-0.0159194 0.074068 0.310772)
(0.216575 0.0804796 -0.271699)
(0.112596 -0.183869 0.357774)
(-0.0131282 -0.0436021 -0.344218)
(0.0798041 0.0627419 -0.43293)
(-0.0103886 -0.257848 0.694639)
(0.0141504 0.192157 -0.811959)
(0.344972 -0.0158843 -0.167198)
(0.152923 -0.117642 0.216824)
(0.1868 0.278611 -0.31438)
(0.112163 0.0371927 -0.426191)
(0.0340698 -0.374645 0.38377)
(0.0627704 0.30653 -0.354886)
(0.15121 -0.328474 0.098115)
(0.226883 0.322044 -0.177036)
(0.104483 0.111488 -0.402804)
(-0.0260402 -0.317579 0.315818)
(0.0814468 0.262083 -0.537708)
(0.540833 -0.0183045 0.197691)
(0.160883 -0.282582 0.178085)
(-0.00436454 -0.00431702 -0.804225)
(0.0620304 0.459599 -0.772043)
(0.0598109 -0.244307 0.404742)
(0.0798274 -0.264925 -0.221963)
(0.0731607 0.250167 -0.374625)
(0.515565 0.0945914 0.121266)
(0.55402 0.0683949 0.180123)
(0.177519 0.0422228 -0.128198)
(0.499557 0.114248 0.28565)
(0.0219865 -0.200085 0.354323)
(-0.0135954 -0.00989683 0.00544192)
(-0.0580342 -0.0120072 0.27186)
(0.339439 0.00173371 -0.250237)
(0.269612 0.00760556 -0.258004)
(0.406407 -0.000303345 -0.156877)
(0.517378 0.0585267 0.117578)
(0.425224 -0.046681 0.118371)
(0.21214 0.0631372 -0.129067)
(0.435525 -0.0344192 0.332123)
(0.0985805 0.0126814 -0.255076)
(0.490242 0.0367828 0.293807)
(0.285759 -0.0204787 0.313159)
(0.106622 0.0926115 -0.525172)
(0.00940269 0.00467383 0.171796)
(0.103844 0.0322483 -0.538384)
(-0.0165923 0.0305619 -0.00478945)
(0.0880591 0.0387129 -0.031334)
(-0.0424931 0.0167441 -0.0150373)
(0.0618332 0.0207994 -0.0447621)
(0.338594 -0.0152683 -0.238002)
(-0.0659843 -0.0133399 0.284481)
(0.19784 -0.0103067 -0.216541)
(0.254333 0.00920393 -0.241926)
(0.228215 -0.0173118 -0.222264)
(0.231549 -0.0177858 0.0821426)
(0.600364 -0.0202035 -0.0614085)
(0.55685 -0.0283584 -0.0682277)
(0.381251 0.00720371 0.00653168)
(0.403971 -0.0270513 0.111411)
(0.390443 0.00722808 0.0653033)
(0.472514 0.00759848 0.114961)
(0.0951052 0.0115911 -0.257084)
(0.476424 0.0147213 0.284754)
(0.0870666 0.00899316 -0.240348)
(0.283493 -0.0341747 0.308003)
(0.211005 0.00699926 0.306367)
(0.0925501 0.0347966 -0.549908)
(0.0145708 0.0127357 0.165386)
(0.0957676 0.0164477 -0.542262)
(-0.0287637 0.0291707 -0.0176075)
(0.067766 0.0268016 -0.051954)
(-0.0421645 0.00445309 -0.00120388)
(0.0768628 0.0162341 -0.0568098)
(0.193859 -0.00203463 -0.214395)
(-0.0633795 -0.0192489 0.277377)
(0.227392 -0.00964071 -0.268254)
(0.228781 -0.0138126 -0.221211)
(0.230335 -0.0298275 -0.226812)
(0.643722 -0.0596693 -0.0363569)
(0.254635 0.00774378 0.0312887)
(0.617934 0.0367681 -0.0990342)
(0.379632 0.00599728 0.00726023)
(0.53902 0.0343281 -0.0619261)
(0.542503 -0.033227 0.0265088)
(0.465967 0.00110788 0.110113)
(0.518885 0.0103161 0.0628426)
(0.374096 0.02965 0.123017)
(0.0914138 0.0110075 -0.240391)
(0.415537 0.0358108 0.320314)
(0.0924762 0.0102048 -0.238409)
(0.210521 -0.0016017 0.305269)
(0.281789 0.073251 0.299379)
(0.094266 0.0153303 -0.543914)
(0.0149084 0.0137571 0.16574)
(0.0912744 0.000548008 -0.546932)
(-0.0374245 0.0270411 9.11395e-05)
(0.0750417 0.0183828 -0.057384)
(-0.00254117 -0.00497863 -0.00818064)
(0.0682221 0.00804518 -0.0561209)
(0.269046 -0.0312164 -0.287918)
(-0.0598356 -0.0222197 0.261603)
(0.544323 -0.048208 -0.281011)
(0.23643 -0.0310215 -0.233657)
(0.29897 -0.0606544 -0.284174)
(0.634657 0.0183217 -0.0882861)
(0.57427 -0.0445121 -0.23277)
(0.375445 0.0273299 0.122957)
(0.504161 -0.0280747 0.146252)
(0.108271 0.00694177 -0.239069)
(0.529787 0.00697205 0.186999)
(0.128272 0.00742629 -0.245146)
(0.284137 0.0272444 0.308018)
(0.412781 0.0337021 0.340242)
(0.104826 0.00102152 -0.537023)
(0.0252962 0.0762804 0.164998)
(0.0946791 -0.0429287 -0.543813)
(-0.00426301 0.0149783 -0.00829138)
(0.079263 0.0123434 -0.0524214)
(-0.0283877 0.00072469 0.00587553)
(0.0711019 -0.00111892 -0.0440171)
(0.546046 -0.0434976 -0.27961)
(-0.00463138 -0.0201539 0.365006)
(0.610435 -0.0627895 -0.341497)
(0.302404 -0.0504543 -0.292074)
(0.255758 0.085363 -0.210496)
(0.601478 -0.0614142 -0.33568)
(0.485583 -0.0200774 0.161044)
(0.181818 0.00405037 -0.250979)
(0.146573 0.00343155 -0.218402)
(0.406022 0.00532742 0.351385)
(0.115575 -0.0415698 -0.533968)
(0.140682 0.0335922 0.306838)
(0.174696 -0.0387616 -0.266066)
(-0.0288339 0.0201432 0.0143884)
(0.0728942 0.00540587 -0.0313472)
(0.663181 -0.0385235 -0.365457)
(-0.105963 -0.0108407 0.0820952)
(0.608705 0.0225522 -0.398198)
(0.220048 0.0774183 -0.181964)
(-0.0414014 0.0353481 -0.0153412)
(0.665153 0.00554526 -0.375936)
(0.587049 -0.0106229 0.248557)
(0.0152854 -0.102875 -0.234538)
(0.044563 -0.101825 -0.410146)
(0.164253 0.19305 -0.0385591)
(0.00865233 -0.364393 0.0442514)
(0.579133 0.0637149 -0.313996)
(0.114571 -0.159024 0.252817)
(0.163212 -0.0765046 -0.312216)
(-0.0927191 -0.0176553 -0.0409318)
(0.204002 -0.102606 0.167433)
(0.271567 0.0934361 -0.290652)
(0.237429 -0.177269 0.0282244)
(0.314081 0.131904 -0.151274)
(0.258472 -0.136918 0.121335)
(0.00308192 -0.145482 -0.444957)
(0.131356 -0.0947805 -0.112278)
(0.235189 0.192613 -0.466224)
(0.555524 0.0390901 -0.0573445)
(0.220644 0.136775 -0.420923)
(0.110647 -0.32637 0.123104)
(0.170409 0.26417 -0.324579)
(1.0299 0.10125 -0.0622436)
(0.3585 -0.302106 -0.0763377)
(0.189273 0.379755 -0.0428968)
(0.231693 0.185612 -0.310898)
(0.0784596 -0.658232 0.233834)
(0.0954888 0.723549 -0.191075)
(0.983588 0.0773349 -0.0467817)
(0.773648 -0.0853241 0.0613174)
(0.214384 -0.502172 0.0784989)
(0.214579 0.425506 -0.121373)
(0.0485577 0.170652 -0.432334)
(0.489355 0.129153 -0.0239586)
(-0.0142105 0.0327735 -0.107196)
(0.0920068 -0.0713899 0.12268)
(0.599804 0.168658 -0.00768154)