/*--------------------------------*- C++ -*----------------------------------*\
  =========                 |
  \\      /  F ield         | OpenFOAM: The Open Source CFD Toolbox
   \\    /   O peration     | Website:  https://openfoam.org
    \\  /    A nd           | Version:  10
     \\/     M anipulation  |
\*---------------------------------------------------------------------------*/
FoamFile
{
    format      ascii;
    class       volVectorField;
    location    "0.05";
    object      wallShearStress;
}
// * * * * * * * * * * * * * * * * * * * * * * * * * * * * * * * * * * * * * //

dimensions      [0 2 -2 0 0 0 0];

internalField   uniform (0 0 0);

boundaryField
{
    inlet
    {
        type            calculated;
        value           nonuniform List<vector> 0();
    }
    outlet
    {
        type            calculated;
        value           nonuniform List<vector> 0();
    }
    walls
    {
        type            calculated;
        value           nonuniform List<vector> 0();
    }
    drone
    {
        type            calculated;
        value           nonuniform List<vector> 
23835
(
(-0.000982789 0.000229666 0.00252618)
(-0.0081098 -0.00218818 0.00734829)
(-0.00149256 0.00144869 0.00330827)
(6.14658e-05 -0.000852674 -0.000579641)
(-0.000729124 -0.00101993 -0.000992434)
(0.000488551 -0.000411091 -6.22128e-05)
(0.000733868 -0.000321934 0.000831624)
(-0.00294984 -0.000686315 -0.00257757)
(-0.0189367 -0.00051372 0.00704816)
(0.000799622 -0.000334307 -0.00244788)
(-0.00939087 -0.000444431 0.00420607)
(-0.00207669 -0.000104871 0.00297337)
(-0.0106953 -0.00562851 -0.00993986)
(-0.00759108 -0.00438637 -0.00624394)
(-0.0179823 -0.0140734 0.0046595)
(-0.0156881 -0.0104437 0.0024691)
(-0.0195006 -0.0118948 0.0014229)
(-0.0141543 -0.00968047 0.00228385)
(-0.00119375 -2.77239e-05 0.00244534)
(-0.00157678 0.000113252 0.00402304)
(-0.00288915 -0.00089983 0.00354972)
(-0.00316582 0.000244597 0.00722359)
(0.000839494 -0.000689526 0.000308578)
(-0.00276503 -0.00216622 -0.00183643)
(-0.00312291 -0.00285956 -0.00645416)
(-0.0014941 -0.000821039 -0.00348312)
(0.000954897 -0.00038975 0.000741335)
(-0.000284354 8.59512e-05 -0.00149138)
(0.000544996 -0.000429522 0.000339674)
(-0.00723865 -0.0045875 0.00315993)
(-0.012404 -0.00396072 0.00212212)
(-0.00205688 -5.22869e-05 -0.000853212)
(-0.00221808 0.000315698 0.000201544)
(-0.00105828 -1.635e-05 -0.000266858)
(-0.00214249 -6.48455e-05 0.000278212)
(-0.00557945 -0.000308654 -0.000490015)
(-0.00304438 0.000190714 0.00167631)
(-0.00274407 -1.05755e-05 -2.88514e-05)
(-0.0027082 0.000127123 -0.00027634)
(-0.00113468 -0.000143699 0.000178039)
(-0.000956692 -0.000230011 -0.000237485)
(-0.00239158 -6.4257e-05 -8.44992e-05)
(-0.00130804 -0.000104059 0.000192876)
(-0.00697442 -0.000456965 0.000728929)
(-0.00167939 9.78794e-05 -3.29504e-05)
(-0.00304508 0.000151538 -0.00067653)
(-0.00233526 -7.42002e-05 -0.000779028)
(-0.00511639 0.000274311 -0.00107229)
(-0.00196016 9.34791e-05 -0.000748655)
(-0.00444799 -0.000815724 -0.00106685)
(-0.0021965 -0.000261087 -0.000799944)
(-0.00210574 -0.0002187 -0.000482446)
(-0.0022757 8.80219e-05 0.000322893)
(-0.00198612 0.000109249 0.000313637)
(-0.00103625 -1.90015e-05 1.70956e-05)
(-0.0010645 -1.7462e-05 -0.000269433)
(-0.00254138 0.000326094 0.000185686)
(-0.00241772 -0.000147211 0.000557692)
(-0.00102784 -1.68667e-05 1.37356e-05)
(-0.00189036 -0.000119048 0.000286675)
(-0.00516211 0.000308258 -0.000187813)
(-0.00227048 -6.8869e-05 -0.000342195)
(-0.00255942 -3.98927e-05 0.000514951)
(-0.00149193 9.88483e-05 -0.00049051)
(-0.00237735 0.000263702 0.00138061)
(-0.00147082 2.95169e-05 -0.000567731)
(-0.0041805 0.000120399 -0.00189149)
(-0.00434354 0.00055848 -0.000378909)
(-0.00329332 7.63403e-05 0.000270723)
(-0.0018851 6.9691e-05 0.00033955)
(-0.0022067 2.24335e-05 -0.000400286)
(-0.00162852 -1.17242e-05 -0.000246689)
(-0.00187232 -7.2443e-05 -0.000266711)
(-0.00177171 6.36732e-06 0.000201183)
(-0.00194876 6.69005e-06 0.000228334)
(-0.00184636 4.52426e-06 0.000182324)
(-0.00109436 -3.98257e-06 -0.000241849)
(-0.00201421 6.77319e-05 -0.000291107)
(-0.0018032 0.000101508 -0.000205921)
(-0.00298251 0.000216495 -0.000462399)
(-0.00419567 -0.000279818 0.000735477)
(-0.00233512 0.000289858 -0.000841221)
(-0.00309626 3.1476e-05 0.00165076)
(-0.000432674 0.00026453 -0.000167063)
(-0.000646554 -1.12986e-05 -0.000164563)
(-0.00168804 -5.26059e-05 -0.00125398)
(-0.000277878 4.65429e-05 -0.00185117)
(-0.0034298 0.000263608 -0.00186662)
(0.000442509 2.36904e-05 -0.00136286)
(0.000835887 7.02532e-05 -0.000912526)
(-0.00129674 5.27373e-05 0.000960423)
(-0.000763152 -0.000160691 0.000603115)
(-0.000886024 0.000806769 -0.00208712)
(0.000712117 -0.000598228 -0.000850163)
(-0.0014629 2.96935e-05 0.00112147)
(-0.00236612 7.95167e-05 0.00187225)
(0.000712909 -7.43097e-05 -0.000844107)
(-9.10317e-05 0.000512561 -0.000311097)
(-0.00123158 -0.000314319 0.000611491)
(-0.00048001 9.1927e-05 -0.00173994)
(-0.00181131 0.000185733 -0.00120136)
(-0.00362636 -0.00013958 -0.00167378)
(-0.00297759 -0.000137593 -0.000664728)
(-0.00546872 0.000927813 -0.000592815)
(-0.00199087 -6.1265e-05 0.000334241)
(-0.00355209 0.00035042 0.000423285)
(-0.00475279 -0.00159384 -0.00297953)
(-0.00304203 8.15541e-05 0.000524211)
(-0.00286955 0.000162353 0.000469604)
(-0.00231318 7.7634e-05 0.000319546)
(-0.00131986 0.000121631 0.000309638)
(-0.00117999 0.000175773 -9.01499e-05)
(-0.00138876 -0.00012576 -0.000440372)
(-0.00184529 -0.000123395 -3.30061e-05)
(-0.00148601 -0.000144429 -0.000302095)
(-0.00115018 0.000198902 -0.000160584)
(-0.00221276 -0.000102377 -0.000837423)
(-0.00206035 -0.000346341 -0.000699943)
(-0.00257006 -8.76431e-05 -0.000404987)
(-0.00223451 -0.00016064 -0.000200633)
(-0.00305526 -2.05347e-05 -5.70507e-05)
(-0.00313604 -6.81062e-05 0.000224402)
(-0.0019678 -0.000100938 4.49438e-05)
(-0.00153979 0.00023241 0.000268508)
(-0.00133394 -0.000172634 -0.000277451)
(-0.00259282 -9.11749e-05 0.00023747)
(-0.00171185 -6.02258e-05 8.38375e-05)
(-0.0014451 0.000267386 7.8743e-05)
(-0.00166222 -0.000134983 -4.06519e-05)
(-0.00130213 0.000286398 -0.000274081)
(-0.00220092 4.74372e-06 -0.000321006)
(-0.0016268 4.75542e-06 -0.000537502)
(-0.00225946 0.000280972 0.000477541)
(-0.00360876 -6.88718e-05 0.000653883)
(-0.0037452 -0.000272602 0.000561748)
(-0.00665099 -0.000687352 0.00136466)
(-0.0019297 -2.86716e-05 -0.00052226)
(-0.00156053 9.92808e-05 -0.000537793)
(-0.00350784 0.000188723 0.000645183)
(-0.00258008 4.55016e-05 0.000326035)
(-0.00266764 0.000263311 0.000386578)
(-0.0026482 6.43714e-05 -0.000362404)
(-0.00206663 1.78971e-05 -0.000522214)
(-0.000772908 8.73912e-05 0.00267708)
(-0.000666526 2.2012e-05 0.00263118)
(-0.00229619 4.35535e-05 0.000524956)
(-0.00233782 0.000278794 0.000426341)
(-0.00199025 1.6264e-06 -0.000110396)
(-0.00190423 0.000203976 0.000278864)
(-0.00176046 1.53914e-05 0.000207071)
(-0.00151607 -0.00011205 -3.43986e-05)
(-0.00161958 2.49532e-06 2.38496e-05)
(-0.00179833 1.29254e-05 -0.000590861)
(-0.0012866 -5.39081e-05 -0.000192058)
(-0.00195968 -7.54801e-05 -0.000251724)
(-0.000579432 0.000174441 0.00257919)
(-0.000736513 0.000112363 0.00267421)
(-0.00228494 1.6058e-05 0.000269119)
(-0.00230219 1.25681e-05 0.000240509)
(-0.00163665 -7.3132e-06 2.77756e-05)
(-0.00108405 1.42792e-05 5.43086e-05)
(-0.00168597 -5.86418e-06 3.15216e-06)
(-0.00195072 -3.05579e-07 0.000199031)
(-0.00193871 9.48047e-07 0.000150895)
(-0.00113498 4.55444e-05 9.11083e-05)
(-0.00178952 -2.02154e-05 -2.41755e-05)
(-0.00111675 3.94574e-06 -0.000212618)
(-0.00175571 9.76838e-05 -0.000219941)
(-0.00195603 2.3596e-06 -0.000267247)
(-0.0016253 8.17536e-05 -0.000426702)
(-0.000539808 0.000101767 0.0025507)
(-0.00235956 0.000213395 0.000326312)
(-0.00382005 -0.000359857 0.000585724)
(-0.00226892 0.000328403 0.000627206)
(-0.00702278 -0.000996807 0.00143479)
(-0.00234779 0.000297266 0.0002295)
(-0.00165619 9.82424e-05 -0.000409345)
(-0.00164726 7.03616e-05 -0.000471696)
(-0.0053962 0.000434431 -0.00113275)
(-0.00208522 8.21551e-05 -0.000556527)
(-0.00084619 9.26694e-05 0.000934986)
(-0.000687173 0.000471545 0.00181426)
(-0.000502578 0.00041053 0.00166886)
(-0.000480401 9.56289e-05 0.00138081)
(-0.00460328 0.000810679 -0.00104757)
(-0.00142563 -0.000100422 0.000795953)
(-0.00247624 2.84487e-05 0.00127352)
(-0.000897952 8.21451e-05 0.000952456)
(-0.00254853 3.00819e-05 0.00124669)
(-0.00176541 0.000295172 -0.000354719)
(-0.00127813 -0.000150091 0.000565476)
(-0.000518517 7.04004e-05 0.00132104)
(-0.00281589 -0.000139878 -5.11542e-05)
(-0.00149492 0.000293058 0.000401813)
(-0.00313162 7.19853e-05 0.00161405)
(-0.00135053 4.9895e-05 -0.00114617)
(-0.00116856 3.65768e-05 -0.00132367)
(-0.000385864 0.000121125 -0.00236296)
(-0.000360972 0.000333465 -0.00255561)
(-0.000120268 0.000290555 -0.00224396)
(-4.4039e-05 0.000303533 -0.00226147)
(0.000294329 0.000160073 -0.00182851)
(-0.000207727 -0.000336209 -0.000444596)
(0.000298924 0.000142567 -0.00175673)
(0.000409968 0.000114295 -0.00158821)
(0.000291601 -4.3125e-05 -0.00193424)
(0.000212076 -6.72746e-06 -0.00172783)
(0.000307697 -0.000183873 -0.00192332)
(0.000848841 -0.000222795 -0.000895379)
(-0.000476792 1.48316e-05 -0.00242676)
(0.000264096 -0.000349957 -0.00230056)
(-0.000347041 -0.000257072 -0.00208224)
(-0.00137758 0.000129487 -0.00130866)
(-0.00147358 -0.000209994 -0.000419028)
(-0.00191365 0.000246247 -0.000534144)
(-0.00185957 0.000552993 -0.000231163)
(-0.00243823 0.000121702 5.14403e-05)
(-0.00164412 0.000606888 -0.000418928)
(-0.00101612 0.000476616 -2.62957e-05)
(-0.00142768 -0.000349163 -0.000473981)
(-0.00104967 -0.000303474 -0.00118263)
(-0.00224555 0.000457053 -0.000223271)
(-0.00156792 0.000596972 -0.000474299)
(-0.00123319 -0.000219672 -0.000270733)
(-0.00554975 -0.00199151 -0.00358166)
(-0.00120439 -0.000190642 -0.000290596)
(-0.00403147 -0.0013857 -0.00266566)
(-0.00534881 -0.000601881 -0.000782916)
(-0.00639774 0.000585762 0.000140576)
(-0.00272762 0.000302716 -0.0016614)
(-0.00341755 0.000354969 -0.00188258)
(-0.00553497 0.000221678 -0.00143643)
(-0.00395676 0.000114531 -0.00102316)
(-0.00263377 0.000301024 -0.00152818)
(0.000304319 -0.000111574 -0.00156447)
(-0.000188662 0.000274308 -0.00143226)
(-0.00540561 0.000405029 -0.00254098)
(-0.000694442 -8.85921e-05 0.000432836)
(-0.000675032 0.000789432 -0.00141918)
(0.000852749 0.00012702 -0.000907128)
(-0.00136102 0.000225558 0.00107035)
(-0.00150269 -6.48198e-05 0.0011464)
(-0.000599788 4.63482e-05 0.000626746)
(-0.000675607 -8.13657e-05 0.000615301)
(0.000752103 3.39664e-05 -0.000870803)
(0.000763684 -0.000352206 -0.0010523)
(-0.000666836 3.91202e-06 0.000565956)
(-0.000831959 -6.26267e-05 0.000856057)
(-0.0014321 -4.95085e-05 0.00113113)
(-0.00120023 -0.000382429 0.000771873)
(-0.00065087 -1.81205e-05 0.000570171)
(-0.000373009 8.22349e-05 -0.0019042)
(7.26243e-05 3.68407e-05 -0.000954657)
(-0.00364992 -0.000107217 -0.00150342)
(-0.00278978 -0.000194456 -0.0015483)
(-0.00119931 -0.000416808 -0.00130401)
(-0.00288681 -0.000115796 -0.00172154)
(-0.00330945 -0.000164021 -0.00172107)
(-0.00171568 8.17829e-05 0.000740038)
(-0.0023307 0.000156224 0.000787455)
(-0.00567164 -6.66421e-05 0.000620966)
(-0.00108287 -0.00069704 -0.00116101)
(-0.00307045 -7.11074e-05 -0.000245)
(-0.00372125 0.000504502 -0.000634168)
(-0.0026548 -0.000219552 -0.000547424)
(-0.00235566 0.000268209 -0.000504563)
(-0.0040455 0.000239756 0.000407143)
(-0.00207827 0.000252214 -0.000312623)
(-0.0033288 4.03975e-05 -1.51334e-05)
(-0.00224487 -9.70506e-05 0.000195263)
(-0.00188885 9.40589e-06 0.000414885)
(-0.00334005 0.000289943 -0.000134178)
(-0.00281022 0.000110044 -5.01571e-05)
(-0.00164861 2.16459e-05 -0.000868323)
(-0.00309933 -0.000226214 0.00158497)
(-0.00238172 -3.13e-05 0.00132722)
(-0.0024393 0.000126935 0.000420395)
(-0.00256352 -0.000105392 -0.000175811)
(-0.00155893 -4.98944e-05 -0.000673314)
(-0.00182432 2.4237e-05 -0.000809962)
(-0.00218243 8.8537e-05 0.000285455)
(-0.00259255 -4.82661e-05 -0.000113404)
(-0.00232451 9.42388e-06 0.000318057)
(-0.00201597 -2.11541e-05 -0.000169699)
(-0.00105363 -9.74858e-06 -0.000266479)
(-0.00200263 -1.47416e-05 -0.000168682)
(-0.00226293 5.943e-05 0.00125621)
(-0.00318042 0.000318854 0.00167639)
(-0.00587169 -0.000117506 0.000432339)
(-0.00243251 -5.17628e-05 -0.000210792)
(-0.005906 0.000704736 -0.00028975)
(-0.00184163 1.94623e-06 -0.00079456)
(-0.00168037 -2.46282e-05 -0.000751079)
(-0.00358575 0.000217438 0.00134571)
(-0.00172455 4.87919e-05 -0.000773939)
(-0.00305018 0.000206791 0.00140223)
(-0.00175644 1.50605e-05 -0.000779024)
(-0.00182574 2.8682e-05 -0.000820751)
(-0.00411729 -0.000501986 0.00128028)
(-0.00444679 -0.000388886 -1.25379e-05)
(-0.003755 -0.000167255 -0.00103087)
(-0.00262374 -0.000166569 -0.00130802)
(-0.00139054 -0.000101202 -0.000835791)
(-0.00286151 0.00016203 0.000193628)
(-0.00258509 -0.000196944 0.000454668)
(-0.00232563 0.000196452 0.000131812)
(-0.00239059 0.000265104 0.000535682)
(-0.0021629 2.31591e-05 0.000312974)
(-0.00119307 -0.000156828 5.47141e-05)
(-0.00154263 4.11749e-05 6.67856e-05)
(-0.00229675 -0.000113478 -5.56868e-07)
(-0.00119028 -9.0415e-05 -0.000581445)
(-0.00109845 -8.09401e-05 -0.00031954)
(-0.00181654 -0.000172871 -0.000164704)
(-0.00200578 -0.000119999 5.24543e-06)
(-0.0016943 6.04029e-05 4.42577e-05)
(-0.00130545 -0.000129353 2.86049e-05)
(-0.00171657 -6.7278e-05 5.92806e-05)
(-0.00182617 0.000119828 8.43841e-05)
(-0.00290678 -0.00011185 0.000506481)
(-0.00376508 -9.22911e-05 0.000221092)
(-0.00351413 2.8641e-05 5.80321e-06)
(-0.00192232 0.000154544 6.03863e-05)
(-0.00155826 8.25913e-05 0.000150558)
(-0.00195838 4.85487e-05 6.15266e-05)
(-0.00228774 -6.00638e-05 0.000320873)
(-0.00337864 0.000141274 0.000282567)
(-0.00487465 0.000557484 -0.000294217)
(-0.00285875 0.000268197 -0.000301135)
(-0.00218173 9.2607e-05 -0.000169003)
(-0.00444652 -0.000177382 0.000604402)
(-0.00387716 0.000367986 0.00105649)
(-0.00373602 0.000225023 0.00118763)
(-0.00164338 0.000213574 -0.000132514)
(-0.00182841 4.19075e-05 2.69003e-05)
(-0.0014998 0.000205502 -0.000363714)
(-0.00157826 7.30047e-05 -0.000457566)
(-0.00157506 -2.04617e-05 -0.000905888)
(-0.00259874 8.0259e-05 -0.00041224)
(-0.00368526 -0.000165364 0.00142227)
(-0.00277531 1.85784e-06 -0.000347964)
(-0.00262531 -0.000148458 0.000393802)
(-0.00304925 0.000202505 -0.000645785)
(-0.0027924 -9.2559e-05 -0.000498567)
(-0.00174848 6.71547e-05 4.00831e-05)
(-0.00146641 0.000128941 -0.000133488)
(-0.00178159 7.98448e-05 4.03317e-05)
(-0.00137632 6.11871e-05 -3.80722e-05)
(-0.00271614 0.000190749 0.0003514)
(-0.00284449 9.56081e-05 -0.000454289)
(-0.00184645 9.23521e-05 5.46527e-05)
(-0.00140259 3.02091e-05 -1.31827e-05)
(-0.00209074 5.83282e-05 -1.50172e-05)
(-0.00209588 6.03312e-05 -0.000294044)
(-0.00148039 0.000176465 -0.00035751)
(-0.00136291 5.57691e-05 -0.000255788)
(-0.00217365 3.30689e-05 -0.000287445)
(-0.00135945 2.9669e-05 -0.000236879)
(-0.00422824 -0.000467983 -0.00187826)
(-0.00175266 1.12596e-05 -0.000993321)
(-0.00470887 1.18668e-05 0.0010258)
(-0.00449758 0.000252068 -0.00174611)
(-0.00164413 0.000406213 -0.000417405)
(-0.000684901 -5.89897e-05 0.000131171)
(-0.00188331 -3.64598e-05 -0.000171052)
(-0.000389689 9.96293e-05 0.000273511)
(-0.00232394 -0.000105273 0.00124376)
(-0.00298981 -0.000161526 0.00154745)
(-0.00287553 -5.84365e-05 0.00149193)
(-0.00562199 -0.000344098 0.00308801)
(-0.00430305 0.000182421 0.000122109)
(-0.001608 -2.85425e-06 -0.000609926)
(-0.00512569 -0.000495071 -0.0012278)
(-0.00226238 -0.000174306 -0.00078084)
(-0.00188408 1.49555e-05 -0.000955142)
(-0.000585417 0.000253545 -0.000774069)
(-0.000672836 -6.5699e-05 9.05008e-05)
(-0.00192592 3.64509e-05 -0.000233664)
(-0.000576643 -3.97996e-05 0.000157256)
(-0.00115474 -2.93654e-05 0.000708218)
(-0.000738271 -0.000199551 0.000576598)
(-0.0024536 -0.000190724 0.0012813)
(-0.0034166 -0.000129932 0.000183204)
(-0.00282764 2.04454e-05 0.00049962)
(-0.00312288 -0.000288858 7.74352e-05)
(-0.0023202 2.85931e-05 0.000236927)
(-0.00231769 6.03451e-06 0.00058071)
(-0.00235377 -4.08942e-05 0.000582103)
(-0.00196915 3.8786e-05 0.000206421)
(-0.00215601 5.77006e-05 0.000302814)
(-0.00214923 3.67519e-05 0.000246955)
(-0.00111713 -6.15178e-05 8.73044e-05)
(-0.00153668 -2.28004e-05 6.42013e-05)
(-0.00172767 -0.000148431 9.02329e-05)
(-0.00110291 -2.38382e-05 -0.000219978)
(-0.002019 -2.49157e-05 -0.000167461)
(-0.002009 -1.23162e-05 -0.00013121)
(-0.00111187 -3.83784e-05 0.000752026)
(-0.00102111 -3.87541e-05 0.000852019)
(-0.00154575 -7.38832e-05 -0.000376482)
(-0.00152232 -0.000112392 -0.000504544)
(-0.00237506 -9.73904e-05 0.000720003)
(-0.00277257 -7.16857e-05 -0.000304234)
(-0.0022207 3.75757e-05 0.00119951)
(-0.00231541 0.00021871 0.00122778)
(-0.00231395 -0.000257941 0.000447223)
(-0.00301249 0.000110238 0.000365039)
(-0.00263397 0.00017829 0.000552298)
(-0.00151922 -2.22026e-05 6.06759e-05)
(-0.00102365 -5.92268e-06 1.23305e-05)
(-0.0015197 1.17224e-07 6.14013e-05)
(-0.00188351 -0.000184232 0.000280216)
(-0.00265185 -0.000131067 9.20396e-05)
(-0.00220384 -1.93675e-05 0.000149965)
(-0.00156723 4.15927e-05 -8.18623e-05)
(-0.0032605 3.38408e-05 -3.22732e-05)
(-0.0013516 2.26919e-05 -0.000179053)
(-0.00216562 5.28551e-05 -0.000160221)
(-0.00195428 -1.51435e-05 1.09333e-05)
(-0.00179661 2.61853e-05 -0.000759494)
(-0.00156162 -7.38815e-05 -0.000376981)
(-0.00155568 3.96718e-05 -0.000499667)
(-0.00100949 2.29523e-05 0.000884327)
(-0.00140337 0.000150279 0.000705794)
(-0.00277084 2.74795e-05 0.00132264)
(-0.00306822 0.000317852 0.00015827)
(-0.00712392 -0.000786215 0.000514645)
(-0.0035728 -0.000192408 0.000224801)
(-0.00159626 7.10502e-05 -0.000398164)
(-0.00151864 0.000107592 -0.000543064)
(-0.000997056 -3.14436e-05 0.00088533)
(-0.00111773 -2.42011e-05 0.00077119)
(-0.000443779 -0.000203634 -0.000864269)
(-0.000454175 -0.000100165 0.000390079)
(-0.0003899 -0.000119738 -0.000788439)
(-0.000183169 -0.00011812 0.000400571)
(-0.00405569 0.0013154 0.00262407)
(-0.00192081 0.000151463 -0.000472733)
(-0.00170674 9.01608e-05 -0.000493211)
(-0.00189744 -6.89667e-05 -0.000812248)
(-0.00111249 -0.000654329 -0.00107257)
(-0.000435023 -9.052e-05 0.000377482)
(-0.000429928 -3.11865e-05 -0.000760612)
(-0.000387842 -5.95527e-05 0.000301952)
(-0.00238067 0.000131083 0.00105917)
(-0.00202635 -0.000723247 0.00165944)
(-0.0027149 -0.000365919 0.00139979)
(-0.0062692 -0.000695373 0.00219129)
(-0.00206419 -1.76286e-05 -0.000968747)
(-0.0107565 -0.00204804 0.00442878)
(-0.0044409 -0.000300156 0.000318748)
(-0.0027808 0.000260673 0.000104347)
(-0.00419248 0.000136021 -0.000159674)
(-0.00183983 0.000977255 6.18974e-05)
(-0.000929971 0.00054955 -0.000539823)
(-0.000786397 -0.000133492 0.000102159)
(-0.000210788 2.1806e-05 4.4139e-05)
(-0.000493237 2.69919e-05 -0.000225767)
(-0.00160088 0.000600516 0.000138148)
(-0.000270029 -0.000361672 0.00118622)
(-0.000347605 0.000144831 -0.000296466)
(-0.00028221 -0.000390688 0.00144193)
(-0.000938405 -0.000558943 -0.000517806)
(-0.000901637 -0.000138374 7.03622e-05)
(-0.000522869 -0.000245849 -3.024e-05)
(-0.000483236 -8.98261e-05 -0.000203433)
(-0.00101378 0.000485115 -0.000442987)
(-0.000494156 2.2775e-05 0.000173971)
(-0.000229333 5.26942e-05 -3.00278e-05)
(-0.000336294 1.2694e-05 -9.56565e-05)
(-0.000855446 -0.000714351 0.000377544)
(-0.00113988 -0.000659463 0.0014296)
(-0.000134429 2.58195e-05 -0.000182502)
(-0.00140803 -0.000199906 0.00147386)
(-0.000876846 0.000543201 0.000560357)
(-0.00124887 9.71602e-05 -0.000426177)
(-0.000325969 5.05602e-06 0.000241327)
(-0.00187482 0.000175235 0.000137473)
(-0.00102192 -0.000600848 -0.000478608)
(-0.000442892 2.92308e-06 0.000190393)
(3.83401e-05 -9.00867e-05 0.000110685)
(-0.000377296 -0.000118646 -8.93782e-05)
(-0.00105052 0.000523439 -0.000439458)
(-0.00132638 -3.18286e-05 0.000536554)
(-0.00127426 9.28404e-05 0.000396508)
(-0.000385278 1.68833e-05 -7.722e-05)
(-0.000910044 -0.000640238 0.000606022)
(-0.00116564 8.47678e-05 -0.000387872)
(-0.000361347 -0.000107152 0.00021879)
(-0.000676404 -0.00018572 -0.000126269)
(-0.000950811 0.000517612 0.000552778)
(-0.00103108 -2.09545e-05 -0.000300018)
(-0.000355574 2.80403e-05 0.000210664)
(-0.000673712 8.45275e-05 -0.000171944)
(-0.00101683 -0.000604697 -0.000460838)
(-0.00134241 -7.45304e-05 0.000542539)
(-0.0012403 -0.000184338 0.000491777)
(-0.000405876 -8.99671e-05 -7.17698e-05)
(-0.00108017 0.0005445 -0.000440748)
(-0.000176661 5.00044e-06 0.000215334)
(-0.000165457 0.000255692 0.000286539)
(-0.000439826 7.0987e-05 -0.000102848)
(-0.000911814 -0.000606844 0.000569556)
(-0.00104245 -4.30654e-05 -0.000297406)
(-0.000361693 -8.71609e-05 0.000205732)
(-0.000696315 -0.000185248 -0.000177036)
(-0.000941583 0.000559322 0.000568614)
(-0.000907211 3.8383e-05 -0.000292827)
(-0.000383926 6.12086e-05 0.000214164)
(-0.00063294 0.000126944 -0.000169655)
(-0.00102951 -0.000558273 -0.00046832)
(-0.000203465 -7.96788e-05 0.00020588)
(-6.44962e-05 -0.00019852 0.000113392)
(-0.000425133 -6.18963e-05 -9.77381e-05)
(-0.000987791 0.000519614 -0.000430248)
(-0.000716418 -6.17238e-06 7.92223e-05)
(-0.000235426 0.000158824 -9.73405e-05)
(-0.000334592 6.14908e-05 -0.000113999)
(-0.000917591 -0.000591097 0.000577805)
(-0.000929207 2.2329e-06 -0.000275357)
(-0.000392641 -6.09321e-05 0.000215284)
(-0.000562178 -0.000288629 -0.000203416)
(-0.00088791 0.000517462 0.000436951)
(-0.000478086 0.000170736 0.00170311)
(-0.000444657 5.73745e-05 -0.000321645)
(-0.00165401 0.000482844 0.00158127)
(-0.000990069 -0.000533838 -0.000432223)
(-0.00069716 -3.9144e-05 0.000108476)
(-0.000413011 -0.000144888 7.97901e-05)
(-0.000326291 -9.64503e-05 -0.000112248)
(-0.0013136 -0.000365699 0.000142012)
(-0.00056995 0.000125458 0.00183951)
(-0.000375687 -1.22477e-05 -0.000354983)
(-0.000688204 0.000158156 0.00163544)
(-0.00293842 -0.000957248 -0.00209143)
(-0.0141252 -0.0091276 -0.00603845)
(-0.00614687 -0.00169508 -0.00254274)
(-0.0212428 -0.00595458 -0.00393089)
(-0.00426798 6.1782e-05 -0.000255258)
(-0.00279937 0.000348748 -1.33719e-05)
(-0.0072121 0.000474723 -0.000660548)
(-0.00365454 0.000171729 3.66095e-05)
(-0.00201548 -5.96943e-05 1.62934e-05)
(-0.00214828 0.000124172 4.42832e-05)
(-0.00330393 -0.000447015 -0.000384755)
(-0.00304401 -0.000408596 -0.000171868)
(-0.00223929 -4.00312e-06 0.000521738)
(-0.001445 -3.03543e-05 -2.54297e-05)
(-0.00128668 0.000137524 -7.99808e-05)
(-0.00150096 -7.09963e-05 -5.85756e-05)
(-0.00118852 7.36728e-05 -0.000103547)
(-0.00209422 9.96139e-05 0.000105881)
(-0.00125656 7.91618e-05 0.000296085)
(-0.00110768 4.93673e-05 0.000284023)
(-0.00133717 3.78357e-05 0.000457532)
(-8.18769e-06 -0.000530509 0.00132299)
(-0.000112477 -0.000148734 0.00136113)
(-0.0018901 -0.000180647 0.000153896)
(-0.00118913 1.93797e-05 0.00123072)
(-0.00172064 -7.9653e-05 0.000479239)
(-0.00150324 4.29489e-05 0.000487706)
(-0.00282332 -7.71177e-05 0.000643829)
(-0.00133939 -1.9925e-05 0.000334234)
(-0.00151637 -2.7969e-05 0.000435579)
(-0.00297464 -2.68497e-05 0.000591077)
(-0.00194067 1.39621e-05 5.90244e-05)
(-0.00170111 -7.46121e-05 3.6208e-05)
(-0.00165335 -2.80043e-05 -0.000176062)
(-0.00162488 -2.35377e-05 -0.000140775)
(-0.00305776 -7.10391e-05 0.000619323)
(-0.00134662 -8.64646e-06 0.000343899)
(-0.00300988 1.93996e-06 0.000603137)
(-0.00135564 -3.66808e-05 0.000351369)
(-0.00157765 7.95814e-05 0.00022593)
(-0.00170552 -6.83411e-05 0.000439358)
(-0.00165382 -2.47356e-05 -0.000161157)
(-0.00164068 -7.89122e-05 -9.01161e-05)
(-0.00159974 1.85964e-05 -0.000275196)
(-0.00159152 2.35104e-05 -0.000163968)
(-0.00267724 2.00874e-05 0.000248722)
(-0.00275638 -9.46655e-05 0.000375159)
(-0.00262114 0.00029631 -0.000386961)
(-0.00273074 1.62577e-05 -0.000201714)
(-0.0029825 0.000129105 0.00056788)
(-0.00224233 0.000334522 -0.000248276)
(-0.00287305 0.000218359 -0.000385679)
(-0.00332546 -9.34775e-05 -1.39253e-05)
(-0.00127903 -3.41271e-05 -0.000119125)
(-0.00172891 -8.95456e-05 0.000132524)
(-0.00159972 8.82352e-06 1.07426e-06)
(-0.00144395 -4.42766e-05 0.000555884)
(-0.00180789 2.7217e-05 0.000490862)
(-0.0024649 0.000100329 0.000103767)
(-0.00116164 -1.3984e-05 0.000281568)
(-0.00166953 0.00014921 0.000510309)
(-0.00195332 -8.17667e-05 0.000188274)
(-0.00164584 1.12554e-05 -0.000169603)
(-0.00176757 -0.000194059 -8.63042e-05)
(-0.000171483 0.000157231 0.00176762)
(-0.000783273 0.000423042 0.00174469)
(-0.0022693 -0.000104034 0.000115737)
(-0.00252297 1.00394e-05 0.000655488)
(-0.00288884 0.000302752 -0.000139083)
(-0.00128226 -3.85445e-05 -6.51269e-05)
(-0.00159909 -1.36851e-05 -1.48859e-05)
(-0.00113175 -7.53424e-06 0.000366017)
(-0.00206527 -0.000191528 0.00025115)
(-0.000347888 9.95119e-05 0.00183493)
(-0.00282498 -7.22808e-05 -0.00224755)
(-0.00362988 -0.000490809 -0.00307821)
(-0.0035681 -0.000415484 -0.00181607)
(-0.00327971 -0.000252304 -0.00157018)
(-0.00129086 -4.74628e-05 -0.000553155)
(-0.00136234 0.000250587 -0.000745822)
(-0.00140919 0.000177249 -0.000731163)
(-0.0015474 -0.000132104 -0.000743321)
(-0.00150746 -9.94208e-05 -0.000714496)
(-0.00234907 2.87932e-05 0.00120002)
(-0.002235 1.64218e-05 0.00124199)
(-0.00217318 0.000160369 0.000281245)
(-0.00220584 6.22251e-05 0.000125669)
(-0.00210963 5.4965e-05 6.06552e-05)
(-0.00183262 -0.000147319 -0.000233895)
(-0.00235012 -0.000126157 -0.000315312)
(-0.00199115 -6.43074e-05 2.3256e-05)
(-0.00268498 -3.01146e-06 -0.000213455)
(-0.00179522 -0.000116579 -0.000183704)
(-0.00184584 -6.31986e-05 -7.80073e-05)
(-0.00234101 -0.000134245 -0.000200543)
(-0.00207123 6.92807e-05 -0.00105345)
(-0.00126691 -0.000138547 -0.000773171)
(-0.00162018 -2.88423e-05 -0.000722251)
(-0.00212459 -5.03267e-05 -0.00109597)
(-0.00239963 -3.42085e-05 -0.00129064)
(-0.00224609 -0.000430995 -0.00123296)
(-0.00309388 -2.80451e-05 0.00153476)
(-0.00306186 2.31016e-05 0.00180729)
(-0.00308957 0.000164044 0.00153784)
(-0.00308573 0.000122825 0.00181802)
(-0.00197006 5.09838e-05 0.000235315)
(-0.00178386 1.02592e-05 0.000208416)
(-0.00204325 1.30797e-05 0.000267684)
(-0.00219425 -0.000264863 0.000210231)
(-0.00218137 3.1674e-06 0.000259492)
(-0.00219108 -3.88539e-05 0.000285009)
(-0.0017994 8.59633e-06 0.000204356)
(-0.00199933 6.89149e-06 0.00021343)
(-0.00198285 -9.97067e-06 0.000235996)
(-0.00198941 -1.80229e-05 -0.000260269)
(-0.00197427 -1.72598e-05 -0.000256261)
(-0.00106419 -6.45676e-06 -0.000269335)
(-0.00200059 -1.03345e-05 -0.00013939)
(-0.00202138 -1.00995e-05 -0.000171237)
(-0.00194125 -6.69837e-06 -0.000235078)
(-0.00199656 -1.33895e-05 -0.00026091)
(-0.00109502 -2.06271e-05 -0.000578598)
(-0.00109668 -1.19038e-05 -0.000579609)
(-0.00195951 -2.45678e-05 -0.000837294)
(-0.00196606 -6.43665e-05 -0.000844403)
(-0.00108719 -1.87356e-05 -0.000567212)
(-0.00109025 -3.54465e-05 -0.00057029)
(-0.00196949 -2.75458e-05 -0.000849246)
(-0.00197561 -8.70989e-06 -0.00085433)
(-0.00318553 0.000151851 0.00167804)
(-0.00309243 0.000317875 0.0016012)
(-0.00217312 8.13828e-05 -0.000223857)
(-0.00205205 6.23263e-05 -0.000452962)
(-0.00356422 0.000391063 -0.00025006)
(-0.00216921 -2.6747e-05 -0.000407293)
(-0.00245719 -9.45298e-05 -0.00132589)
(-0.00195679 -8.27573e-05 -0.000865227)
(-0.00210643 -0.00022119 -0.000759653)
(-0.00211274 -0.000159545 -0.00108111)
(-0.00309652 -5.74847e-05 0.000828298)
(-0.00339652 0.000252943 0.00111705)
(-0.00456405 0.000229639 0.00117687)
(-0.00352736 0.000239879 0.00115947)
(-0.00754072 5.87258e-05 0.00170539)
(-0.00331092 0.000205475 0.000858705)
(-0.00141259 0.000163343 -0.00117185)
(-0.00381291 0.000294228 -0.00205885)
(-0.00191902 9.63351e-06 -0.000943595)
(-0.00116128 1.86393e-05 -0.000766542)
(-0.00151938 0.000134973 -0.000916941)
(-0.00307507 3.85582e-05 0.00141799)
(-0.00228229 6.0723e-05 -0.000837028)
(-0.00164752 1.01672e-05 -0.000854245)
(-0.00129507 2.28534e-05 -0.000559764)
(-0.0121357 -0.00316709 0.00170116)
(-0.00644753 -0.000913968 0.00214139)
(-0.00479321 -0.000134179 0.00142089)
(-0.00957575 -0.000678442 0.00687974)
(-6.39487e-05 -4.21684e-05 -2.2153e-05)
(-0.000458037 -0.000960735 -0.00119517)
(-0.000851379 -0.00149492 0.000231452)
(-0.00021634 4.20187e-05 -0.000134863)
(-0.00058226 -0.000781679 0.00127805)
(-0.000600666 -0.000453894 -0.00167553)
(-0.00637441 -0.0017365 0.00104547)
(-0.0127033 -0.0058014 -0.000704998)
(-0.00468122 -0.000399766 1.64077e-05)
(-0.00440156 -0.000281934 3.40617e-05)
(-0.00497242 -0.00049445 0.00019242)
(-0.005576 -0.00074474 -0.00010268)
(-0.00487082 -0.000672677 -0.000336212)
(-0.00567937 -0.000770678 -0.000250007)
(-0.00123599 2.18003e-05 0.00093703)
(-0.0018283 -0.000192525 -0.00105486)
(-0.00136543 -0.000166719 -0.000762032)
(-0.00331761 -0.000175449 0.00206348)
(0.000582816 0.000235051 -0.0012111)
(-0.00170409 2.63868e-05 -0.000439623)
(0.000708044 0.000169413 -0.000828094)
(-0.00165304 0.000197894 -0.0004524)
(-0.00111573 0.000262532 0.000649826)
(-0.00118831 0.000159438 0.000502743)
(-0.000962446 4.03005e-05 -0.00230513)
(-0.0010881 7.87277e-05 -0.00128996)
(-0.000983066 1.63459e-06 -0.00117025)
(-0.0018643 -8.84551e-05 -0.000529367)
(-0.000989918 -0.000883832 -0.00207659)
(-0.0010043 -5.7754e-05 -0.00108748)
(-0.00239336 -0.000245028 0.00188169)
(0.000468879 5.42218e-05 -0.00134613)
(-0.00168177 -0.000103513 -0.000494857)
(0.000400574 7.21689e-05 -0.00138661)
(-0.000798493 -1.94145e-05 0.000522797)
(-0.000824905 4.64753e-05 0.000702806)
(-0.00172198 0.000288998 -0.00120695)
(-0.00194655 0.000133906 -0.00114758)
(-0.00230965 0.000211727 0.00152164)
(-0.00159206 7.29873e-05 0.000823135)
(-0.00234297 -4.50584e-05 0.00106539)
(-0.00143371 3.19887e-07 0.000821247)
(-0.00198878 8.24628e-05 0.00074677)
(-0.00239102 0.000124025 0.00102149)
(-0.00405001 0.000213564 -0.000610433)
(-0.00295638 -0.000131353 -0.000899501)
(-0.00388289 -0.000399249 -0.000937716)
(-0.0069855 0.000396835 -0.00171533)
(-0.00431331 -0.000293538 -0.000952286)
(-0.00336793 -2.02964e-05 -0.00113106)
(-0.00396242 6.5972e-05 0.00063488)
(-0.00234182 8.88003e-06 0.00050083)
(-0.00259706 7.07068e-06 0.000383189)
(-0.00421767 -9.04267e-05 -0.00101006)
(-0.00338871 -0.000245973 -0.000968228)
(-0.00353578 -0.000306976 -0.000851301)
(-0.00633418 0.00013506 -0.00136931)