/*--------------------------------*- C++ -*----------------------------------*\
  =========                 |
  \\      /  F ield         | OpenFOAM: The Open Source CFD Toolbox
   \\    /   O peration     | Website:  https://openfoam.org
    \\  /    A nd           | Version:  10
     \\/     M anipulation  |
\*---------------------------------------------------------------------------*/
FoamFile
{
    format      ascii;
    class       volVectorField;
    location    "0";
    object      wallShearStress;
}
// * * * * * * * * * * * * * * * * * * * * * * * * * * * * * * * * * * * * * //

dimensions      [0 2 -2 0 0 0 0];

internalField   uniform (0 0 0);

boundaryField
{
    inlet
    {
        type            calculated;
        value           uniform (0 0 0);
    }
    outlet
    {
        type            calculated;
        value           uniform (0 0 0);
    }
    walls
    {
        type            calculated;
        value           uniform (0 0 0);
    }
    drone
    {
        type            calculated;
        value           nonuniform List<vector> 
70116
(
(-0.451394 0.0106316 0.0300827)
(-0.512765 0.101366 0.0672799)
(-0.448275 0.00621026 0.0432466)
(-0.375966 0.00415501 0.0351372)
(-0.466621 -0.0937816 0.0474969)
(-0.277339 -0.000124113 -0.00277097)
(-0.4174 -0.141953 -0.00967104)
(-0.45328 0.140808 0.000952992)
(-0.460663 0.146848 0.00630216)
(-0.27601 -0.00012021 0.0025244)
(-0.374893 -0.0460633 -0.0232615)
(-0.426553 0.0253386 0.00934783)
(-0.45013 0.00552971 0.0134833)
(-0.465636 0.0273425 -0.0387372)
(-0.491295 0.093926 -0.0643205)
(-0.324847 0.0141882 0.000857808)
(-0.429734 0.0543622 0.0649196)
(-0.433547 -0.0472424 0.0174959)
(-0.333489 -0.0157518 -0.0018659)
(-0.428598 -0.0278753 1.03691e-05)
(-0.322542 -0.0166953 0.000431665)
(-0.452348 -0.00537557 -0.00265644)
(-0.43933 0.0991384 -0.00877692)
(-0.428948 -0.0208017 0.00809785)
(-0.502099 -0.0556101 0.00804806)
(-0.453635 0.0105623 -0.00482417)
(-0.414308 0.0434274 -0.00826685)
(-0.42082 0.0497492 0.0167332)
(-0.411482 0.0515462 0.142206)
(-0.488965 -0.0974854 -0.0607392)
(-0.437949 0.101102 -0.111873)
(-0.433932 0.0111466 -0.0433478)
(-0.359854 -0.144362 -0.10755)
(-0.457473 -0.0777787 -0.0994911)
(-0.440592 -0.0171253 -0.0572984)
(-0.373391 -0.0298445 -0.0418479)
(-0.352201 -0.1565 0.0986945)
(-0.434825 0.00649671 -0.0700447)
(-0.373623 -0.0164272 -0.0069364)
(-0.449706 -0.050986 -0.0674044)
(-0.438097 -0.0957107 0.00860752)
(-0.451301 -0.162068 0.0826333)
(-0.426822 -0.0916115 0.056138)
(-0.321251 -0.00418767 -0.046275)
(-0.397766 0.0124134 -0.00496499)
(-0.346701 -0.000655863 0.0487581)
(-0.444252 0.102399 0.111535)
(-0.434916 0.0477399 0.0264439)
(-0.279252 -0.000121523 0.00255083)
(-0.279798 0 0)
(-0.275347 0 -1.36971e-17)
(-0.398989 -0.0209621 0.0804007)
(-0.433038 0.0182483 -0.0564506)
(-0.438743 -0.0151662 0.00660688)
(-0.351161 -0.0372691 -0.0276004)
(-0.532361 -0.0932591 -0.0242382)
(-0.456051 0.00571655 -0.000504483)
(-0.42516 0.0354957 -0.0019392)
(-0.38471 -0.112232 0.103153)
(-0.378114 0.000199268 -0.0672169)
(-0.381881 0.0314579 -0.0517207)
(-0.384877 -0.0115805 -0.0594774)
(-0.452567 -0.0271362 0.0618993)
(-0.344192 0.162248 0.0939886)
(-0.382662 0.0159424 -0.00463075)
(-0.442418 -0.0176523 -0.0591617)
(-0.433741 0.0180758 0.00628139)
(-0.452522 0.00443687 0.0147334)
(-0.418656 -0.0575496 0.0010343)
(-0.459923 -0.000959211 -0.00345922)
(-0.456068 -0.00614196 -3.15174e-05)
(-0.435747 0.0596822 -0.00248971)
(-0.437943 -0.0288116 -0.131563)
(-0.459531 -0.0153654 -0.0404428)
(-0.442099 0.0715185 -0.0942929)
(-0.422488 -0.0171715 -0.126649)
(-0.459464 -0.00820752 -0.0403663)
(-0.423794 0.0169937 -0.125843)
(-0.449222 0.00919766 -0.118062)
(-0.437809 0.0194681 -0.113921)
(-0.350213 -0.0123832 -0.00889491)
(-0.447926 0.0273287 -0.00548441)
(-0.433749 0.0267284 -0.0111788)
(-0.349672 -0.000156183 -0.00833166)
(-0.497139 -0.138844 -0.0783104)
(-0.459903 -0.029787 0.0371503)
(-0.376473 -0.0227599 0.0308329)
(-0.431578 0.137304 0.019423)
(-0.432903 0.0904807 -0.00949249)
(-0.432352 0.0238036 0.134941)
(-0.43177 0.0228871 0.117873)
(-0.500745 0.0559159 0.0126482)
(-0.424351 -0.0447002 0.00416608)
(-0.506566 -0.0590432 0.00359965)
(-0.31688 -0.01165 -0.00143878)
(-0.432149 0.017319 0.0730042)
(-0.511919 -0.113658 0.074001)
(-0.455124 -0.00297954 0.0434779)
(-0.378516 0.0310329 0.0500268)
(-0.447364 -0.00790345 -0.117416)
(-0.424434 -0.0494175 -0.000685693)
(-0.4578 0.000579377 -0.00467788)
(-0.420897 -0.0078575 0.0427097)
(-0.34896 -0.0228502 0.00576309)
(-0.50087 0.0585899 0.00791831)
(-0.424258 0.0435938 0.00548669)
(-0.335991 -0.0120995 0.000739109)
(-0.326663 -0.0202477 -0.000726043)
(-0.42249 -0.041854 0.0107885)
(-0.339207 0.0143219 -0.00152576)
(-0.352219 0.0242125 -0.00761593)
(-0.458012 0.00241602 -0.00445147)
(-0.337738 -0.0126169 0.00612542)
(-0.366128 -0.0227293 -0.00436467)
(-0.514125 -0.00484655 -0.0352178)
(-0.322929 -0.00569072 0.0192758)
(-0.31418 0.0290874 -0.0608083)
(-0.366317 0.0119013 2.33796e-17)
(-0.355217 -0.0177918 0.0318491)
(-0.340851 0.0004742 2.86011e-05)
(-0.342133 -0.0341619 -0.00437087)
(-0.337413 -0.0176584 -0.00381603)
(-0.321802 -0.00298832 -0.000329024)
(-0.436062 0.00679792 0.0110955)
(-0.38627 0.110428 -0.11404)
(-0.374674 0.02869 0.0503007)
(-0.373312 -0.0296359 -0.0515355)
(-0.366902 0.0249522 -0.0418317)
(-0.360859 0.0217438 -0.0392649)
(-0.447377 -0.0034834 -0.0911693)
(-0.340965 -0.00116016 -7.24754e-05)
(-0.339248 0.0105552 0.000826901)
(-0.343437 0.0348914 0.00642625)
(-0.357622 -0.0209655 -0.0375685)
(-0.376112 0.0862414 0.0978663)
(-0.366921 0.0262888 0.0386936)
(-0.318173 0.0116639 0.0017854)
(-0.304926 0.000295158 -0.0408734)
(-0.462961 -0.0483415 -0.0678658)
(-0.323679 0.0141015 -0.033101)
(-0.464367 0.0449708 0.0741533)
(-0.322061 -0.0101807 0.0290854)
(-0.329682 0.000556282 0.0119565)
(-0.29651 0.0102188 0.0267221)
(-0.378639 0.142334 0.0342489)
(-0.346863 0.110665 -0.114152)
(-0.294852 -0.0103333 -0.0251759)
(-0.341371 0.00026541 1.51512e-05)
(-0.338834 -0.00858052 -0.000226213)
(-0.339531 0.0230786 0.00523203)
(-0.370926 -0.0140072 -0.039775)
(-0.475821 0.111276 0.0277165)
(-0.445705 0.107562 -0.00615637)
(-0.43868 -0.138547 -0.0240081)
(-0.432646 -0.0777076 0.0014971)
(-0.489633 -0.134105 -0.086183)
(-0.427762 -0.073159 0.0048607)
(-0.331792 -0.00492131 -0.0381131)
(-0.414087 -0.102354 0.126903)
(-0.408471 -0.041537 -0.000944922)
(-0.437091 0.0542479 -0.0375052)
(-0.397195 0.010369 -0.00380175)
(-0.313152 -0.000289069 -0.0488591)
(-0.322165 -0.00290001 -0.0453678)
(-0.424309 -0.0357651 0.0132485)
(-0.472496 0.0849088 0.0467408)
(-0.437692 0.0779261 7.0892e-05)
(-0.450847 0.0361841 -0.0361174)
(-0.416203 -0.0239717 -0.0310249)
(-0.358302 0.0181637 -0.033346)
(-0.371038 0.10945 -0.0490147)
(-0.434509 -0.0573452 0.00743149)
(-0.353188 0.0999814 0.00921163)
(-0.434172 0.0291518 0.124383)
(-0.445436 0.101388 0.0206142)
(-0.420468 0.042337 0.0134954)
(-0.462214 0.058863 0.0116737)
(-0.415858 -0.0840823 -0.0854943)
(-0.438769 -0.0475036 0.00144107)
(-0.358923 0.0207 0.0366606)
(-0.413469 -0.0572987 -0.00251453)
(-0.458922 0.000865415 -0.00376113)
(-0.501807 0.0575191 -0.0086114)
(-0.461773 0.0606899 -0.00545017)
(-0.290879 0.00829729 0.0298471)
(-0.426267 -0.0174761 0.129367)
(-0.352408 0.107548 -0.112434)
(-0.320295 -0.0184771 -0.00120981)
(-0.324992 0.0231975 -0.0171462)
(-0.458188 -0.0785428 -0.099641)
(-0.44106 -0.0173466 -0.0577041)
(-0.440565 -0.0171582 -0.0574931)
(-0.46191 -0.0760319 -0.100413)
(-0.442502 -0.0175553 -0.0590361)
(-0.458581 -0.0761174 -0.101378)
(-0.458098 -0.0757468 -0.10134)
(-0.442507 -0.0176312 -0.0591385)
(-0.433252 -0.0244424 0.119602)
(-0.505274 0.0550381 0.00070915)
(-0.489192 -0.0695296 -0.00817489)
(-0.454053 0.0423245 -0.0822767)
(-0.427466 0.0924578 -0.0880979)
(-0.356057 0.0431544 -0.0321924)
(-0.360837 -0.0427186 0.0369889)
(-0.459858 -0.00166821 -0.00486067)
(-0.422979 -0.0378883 -0.0040115)
(-0.433349 -0.0293736 -0.127153)
(-0.430836 -0.116582 -0.0500604)
(-0.428801 -0.00960876 0.0790925)
(-0.429005 -0.0206607 -0.00520304)
(-0.402686 0.111464 0.0507561)
(-0.504556 -0.0623752 0.142062)
(-0.365873 -0.126214 -0.0587261)
(-0.341105 -0.000834615 -4.94908e-05)
(-0.3388 -0.00490141 -0.000171984)
(-0.34137 0.00051345 3.39573e-05)
(-0.341315 0.000659168 3.9797e-05)
(-0.432358 -0.0340582 -0.0285837)
(-0.405335 0.106677 0.0348276)
(-0.340765 0.0171251 0.000983293)
(-0.422708 0.0577289 0.00945216)
(-0.341929 0.0375084 0.00458757)
(-0.342742 -0.0384263 -0.00236245)
(-0.322773 0.0244277 0.00579977)
(-0.455153 0.0350604 0.0095778)
(-0.425175 -0.000192183 -0.00653303)
(-0.32124 0.000137729 0.00489185)
(-0.500091 -0.00021392 0.00452686)
(-0.436887 -0.0191673 -0.0557151)
(-0.402056 -0.0176809 -0.045414)
(-0.299869 -0.00288393 0.0218642)
(-0.2894 0.000147333 -0.00564964)
(-0.290604 -0.000147801 0.00567358)
(-0.301629 -0.000397482 -0.00585396)
(-0.402014 0.000530789 0.00781405)
(-0.32406 -0.00488366 -0.041165)
(-0.313143 -0.0130043 0.0296328)
(-0.303306 2.54233e-07 0.00111853)
(-0.405662 0.0115976 0.0546236)
(-0.34707 0.0121819 0.0390651)
(-0.293505 0.00809438 0.0326008)
(-0.401115 0.0121394 0.0463371)
(-0.278475 0.000380632 -0.00539967)
(-0.28346 0.000387606 -0.00549628)
(-0.289751 -0.00039706 0.00561721)
(-0.28882 -0.000396008 0.00560087)
(-0.26988 0.000369648 -0.00523521)
(-0.288903 -0.000396138 0.00559981)
(-0.405977 -0.000753656 -0.00765039)
(-0.269962 0.000355703 0.00524263)
(-0.351339 0.00268186 0.0229044)
(-0.30435 0.00282573 0.0250717)
(-0.401356 0.00300586 0.0259975)
(-0.301306 -0.0125043 0.0285068)
(-0.337484 0.00504887 0.0235333)
(-0.33494 0.00015553 -0.00378613)
(-0.396658 -0.00355034 0.0257115)
(-0.322062 -0.00323087 0.0251567)
(-0.32922 -0.00294787 0.0213445)
(-0.288938 0.00014708 -0.00564063)
(-0.289727 0.000147519 -0.00565625)
(-0.291244 -0.000148141 0.00568573)
(-0.290862 -0.000147945 0.00567823)
(-0.288388 0.000146778 -0.0056292)
(-0.293606 -0.000386743 -0.00569671)
(-0.290974 -0.000147958 0.00568047)
(-0.295352 -0.00038916 -0.00573175)
(-0.401866 0.000530641 0.007813)
(-0.330312 0.000435832 0.00641811)
(-0.296707 -0.000390881 -0.00575417)
(-0.270823 0.00174068 0.0178674)
(-0.305893 -0.00459678 -0.0388835)
(-0.278389 0.00211111 0.0183035)
(-0.386709 -0.0159524 0.0367285)
(-0.344991 -0.00944139 0.00505776)
(-0.428511 0.0608296 0.0111605)
(-0.458597 -0.0173842 -0.0389508)
(-0.381785 -0.0138039 -0.0284154)
(-0.390765 -0.00756143 -0.0141125)
(-0.304327 -0.00588411 -0.0109856)
(-0.38272 0.0468022 0.0274571)
(-0.327191 0.00014237 -0.003072)
(-0.276559 0 1.36887e-17)
(-0.33161 0.00015538 -0.00408299)
(-0.289547 -0.000129218 -0.00419759)
(-0.383705 0.0218715 0.00971391)
(-0.445535 -0.0488199 -0.0379832)
(-0.346493 0.00365205 -0.0443524)
(-0.303552 0.00212573 -0.0199831)
(-0.291478 0.000400707 -0.00566638)
(-0.306903 -0.00144696 0.0204572)
(-0.296055 -0.000405817 0.00575356)
(-0.280945 -0.00132456 0.0187296)
(-0.292406 0.000148716 -0.0057066)
(-0.290205 -0.00014622 -0.00566347)
(-0.293904 -0.000147938 -0.00573779)
(-0.291294 0.00014673 0.00568598)
(-0.271226 0.000468585 0.0181542)
(-0.29224 0.00132086 0.0194525)
(-0.358286 0.00232128 0.0236836)
(-0.353715 -0.00262612 -0.0232354)
(-0.322428 0.00275385 0.0253382)
(-0.357824 -0.00187248 -0.0450807)
(-0.289331 0.000126317 -0.00438683)
(-0.438351 -0.0213754 0.0585909)
(-0.270597 -0.000117123 0.00404396)
(-0.34244 0.000145775 -0.0030935)
(-0.316767 -0.00011313 0.0034521)
(-0.317659 0.0071945 0.00244741)
(-0.361138 -0.0170778 0.00063979)
(-0.392538 0.0127739 0.000585156)
(-0.391264 0.0134354 -0.00203126)
(-0.3049 -0.026702 0.0139734)
(-0.353989 -0.0355191 0.0152471)
(-0.31784 -0.000297765 -0.00451216)
(-0.372108 -0.0122972 -0.0374438)
(-0.344968 0.0069787 -0.0317391)
(-0.269531 0.000121518 0.0039069)
(-0.3635 -0.00544488 0.0261123)
(-0.386947 -0.00211695 0.0223057)
(-0.359865 -0.00791159 0.0448194)
(-0.409409 -0.000834099 0.0106563)
(-0.412456 -0.000843493 0.0107253)
(-0.368491 0.00403486 -0.0526306)
(-0.334374 0.00354031 -0.0478547)
(-0.465161 -0.000331226 0.012094)
(-0.413557 0.000289045 0.0107553)
(-0.382914 -0.00151169 -0.054824)
(-0.441442 0.00170694 -0.0632138)
(-0.41128 0.000794485 0.0107063)
(-0.402846 0.00197101 0.0129104)
(-0.353744 -0.00398852 -0.0504649)
(-0.38443 0.00261242 0.0229279)
(-0.360754 0.00448245 0.0277394)
(-0.346201 0.00547571 0.0381698)
(-0.275559 0.00419104 0.0187413)
(-0.404534 0.000885825 0.00365799)
(-0.275288 -0.00422466 -0.0160494)
(-0.348225 -0.00255036 -0.00984849)
(-0.390346 0.0205396 0.050128)
(-0.303631 0.00266439 -0.0196921)
(-0.33133 0.00290707 -0.0214866)
(-0.395469 -0.00381381 0.0252742)
(-0.322036 -0.004035 0.0277349)
(-0.308035 0.00270156 -0.0199776)
(-0.327261 0.000667766 -0.00628841)
(-0.301684 0.000618159 -0.0058129)
(-0.308657 0.000631498 -0.00594395)
(-0.291434 0.000398349 -0.00564974)
(-0.292403 0.000399677 -0.00566858)
(-0.289313 -0.00204584 0.0190884)
(-0.293406 -0.00206459 0.0194105)
(-0.284797 -0.002003 0.01884)
(-0.29182 0.00039888 -0.00565726)
(-0.278082 0.000381227 -0.00539584)
(-0.26955 0.000219378 -0.00546329)
(-0.283912 -0.0003741 -0.0055192)
(-0.287661 -0.000378813 -0.00559262)
(-0.286958 -0.000537312 -0.0055367)
(-0.289075 -0.000541327 -0.00556262)
(-0.289387 -0.00038127 -0.00562564)
(-0.291232 0.000547957 0.00562401)
(-0.295898 -0.000554322 -0.00571388)
(-0.290152 -0.000543704 -0.00559894)
(-0.300748 -0.000563353 -0.00580707)
(-0.292603 0.000550157 0.00565094)
(-0.304768 -0.000571007 -0.00588637)
(-0.29178 0.000548531 0.00563424)
(-0.305386 0.00196269 0.020151)
(-0.294372 0.00189203 0.0194215)
(-0.271174 -0.00204343 -0.0178996)
(-0.331401 -0.00253222 -0.021621)
(-0.324913 -0.00248363 -0.0211959)
(-0.399024 -0.00304481 -0.0260371)
(-0.300658 0.00228858 0.0197849)
(-0.270481 0.00202831 0.0176468)
(-0.268049 0 -9.34223e-18)
(-0.268299 0 0)
(-0.272995 0 9.81407e-19)
(-0.379022 0 -1.46841e-17)
(-0.422781 0 9.97673e-18)
(-0.409231 0 1.2653e-17)
(-0.34231 0.000215399 -0.00494666)
(-0.343188 0 0)
(-0.347283 0 -3.23565e-17)
(-0.282551 0 -2.83253e-18)
(-0.282526 0 -1.1328e-17)
(-0.345038 0 -1.59655e-17)
(-0.347392 0 0)
(-0.340163 -0.000164941 0.00431069)
(-0.277232 -0.000128553 -0.00319909)
(-0.316889 -0.000102193 -0.00255061)
(-0.457537 0.0157955 -0.037328)
(-0.389991 3.27011e-05 0.000264191)
(-0.284657 0.000127142 0.00316215)
(-0.327018 -0.00619042 -0.0294281)
(-0.286153 0.000127378 0.00311123)
(-0.340767 0.000212517 0.00646774)
(-0.285654 0.00012594 0.00269466)
(-0.290095 -0.000135668 -0.00342887)
(-0.347032 0.000372884 0.003466)
(-0.290172 -0.000129115 -0.00424075)
(-0.345868 -0.00249788 -0.0246896)
(-0.3498 -5.03278e-07 -6.52898e-06)
(-0.317674 0.000446995 0.00669981)
(-0.341707 0.00377011 0.015115)
(-0.333104 0.00695879 0.0210747)
(-0.452562 0.0288614 -0.0538878)
(-0.351633 0.000230532 0.00236043)
(-0.448025 -0.064666 8.97859e-06)
(-0.410948 -0.0503215 -0.0294112)
(-0.346058 0.000150509 0.00316112)
(-0.266703 -3.40493e-05 -0.00241982)
(-0.274218 0.000115663 0.00440382)
(-0.346011 0.000150736 0.0031644)
(-0.288488 0.000125544 0.002635)
(-0.429085 -0.0604004 0.0136929)
(-0.405331 0.00094281 0.0125743)
(-0.405591 -0.00212805 0.0230763)
(-0.385844 -0.00340602 -0.0250832)
(-0.272462 -0.0153129 -0.00630413)
(-0.403216 -0.0226616 -0.00934974)
(-0.462947 -0.0259219 -0.0106801)
(-0.324664 -0.0182794 -0.00714291)
(-0.33851 -0.0189726 -0.00747416)
(-0.334467 0.018108 0.0079176)
(-0.378474 0.00588517 -0.0315374)
(-0.291857 0.00291785 -0.0366279)
(-0.370451 0.00465066 -0.036082)
(-0.450252 0.0022806 -0.0279004)
(-0.448568 0.00226966 -0.0277989)
(-0.389363 0.00501778 -0.0436066)
(-0.324187 0.00605971 -0.0409007)
(-0.365366 0.00524459 -0.0444652)
(-0.331615 0.00232184 -0.0218289)
(-0.295814 0.00207026 -0.019472)
(-0.309122 0.00216399 -0.0203488)
(-0.327465 -0.00154841 0.0218034)
(-0.300233 -0.00142241 0.0199722)
(-0.462174 0.000423527 -0.0263036)
(-0.464949 0.000603618 -0.0233433)
(-0.290908 0.000399489 -0.00565162)
(-0.290228 0.000211127 -0.00565341)
(-0.301081 -0.000412378 0.00584709)
(-0.290729 0.000210621 -0.00566418)
(-0.292713 0.000148846 -0.00571282)
(-0.294768 -0.000209647 0.00573692)
(-0.293533 0.000149243 -0.00572805)
(-0.294939 -0.00139443 0.0196396)
(-0.29291 -0.000209795 0.00570633)
(-0.27801 -0.000697215 0.0186394)
(-0.468429 -0.0011572 -0.0199651)
(-0.463556 -0.000423106 -0.0249551)
(-0.289591 -0.000145911 -0.0056515)
(-0.289773 -0.00014599 -0.00565544)
(-0.293188 0.000149088 -0.00572208)
(-0.291688 0.000146817 0.00569286)
(-0.295472 -0.000148758 -0.00576862)
(-0.290374 -0.000146273 -0.0056664)
(-0.295901 -0.000148994 -0.00577738)
(-0.291893 0.0001469 0.00569609)
(-0.300296 -0.000151179 -0.00586246)
(-0.291473 0.00014671 0.00568871)
(-0.289897 0.00131067 0.0192943)
(-0.275035 0.000475047 0.0184086)
(-0.279781 0.00126546 0.0186248)
(-0.469586 -0.00116382 -0.0188193)
(-0.278832 -0.00180048 -0.0184812)
(-0.326664 -0.00212423 -0.0215494)
(-0.271271 -0.00175215 -0.0179853)
(-0.403343 -0.00265462 -0.0265984)
(-0.285031 -0.00184071 -0.0188907)
(-0.28382 0.00128256 0.0188918)
(-0.310009 0.00202568 0.0205464)
(-0.408214 0.00262546 0.0269408)
(-0.328976 0.00213137 0.0217523)
(-0.365333 -0.00346403 -0.0401954)
(-0.370491 -0.00465715 -0.0425061)
(-0.395171 -0.0034442 -0.0428429)
(-0.44983 -0.00170056 -0.027504)
(-0.397289 0.00304575 0.0260877)
(-0.353068 0.00942435 -0.0232553)
(-0.301266 -0.00157574 -0.0379556)
(-0.370405 -0.00352098 -0.0370925)
(-0.302216 -0.00158321 -0.0380757)
(-0.39008 0.0129742 -0.00575634)
(-0.379955 0.00968513 -0.0254574)
(-0.450039 -0.00180717 -0.0276289)
(-0.386126 0.012856 -0.00492192)
(-0.369956 0.00907268 -0.0252267)
(-0.358128 -0.0013412 -0.0447542)
(-0.477737 -0.0406428 0.0368961)
(-0.476137 0.0246346 -0.0243398)
(-0.391986 0.112997 -0.143768)
(-0.373426 -0.0326185 0.0164847)
(-0.308092 -0.0273973 0.013127)
(-0.385217 -0.0330554 0.0313822)
(-0.292277 0.000113241 -0.00216793)
(-0.289597 0.000125791 -0.00442938)
(-0.43935 -0.0577952 0.0214814)
(-0.435313 -0.0566561 0.0233279)
(-0.358354 3.66301e-07 -4.7523e-06)
(-0.318151 -0.00011381 0.00396431)
(-0.288244 -0.000125427 0.00263351)
(-0.288981 -0.000126157 0.00266237)
(-0.409337 0.0470118 -0.0328508)
(-0.424935 0.00120872 0.0176343)
(-0.373018 0.00575343 0.0314784)
(-0.348728 3.2608e-07 -4.23391e-06)
(-0.289557 0.000135316 -0.00383409)
(-0.349671 -0.000900251 0.00664258)
(-0.317292 -0.000396077 0.00669255)
(-0.346135 -0.00394702 0.0155993)
(-0.342904 -0.00474858 0.0172874)
(-0.303343 -1.17693e-05 0.000989114)
(-0.332672 -0.00709995 0.0211656)
(-0.348689 -0.00015199 0.00319121)
(-0.26749 -0.000294087 -0.0063059)
(-0.428287 -5.30734e-05 0.0103502)
(-0.304875 -0.00595809 0.0235824)
(-0.370958 0.0013789 0.0187313)
(-0.378132 -0.00241475 0.0166124)
(-0.319679 0.000203263 -0.00241803)
(-0.285744 -0.000128015 0.00288845)
(-0.28659 -0.000124815 0.00262983)
(-0.277597 0 -1.36527e-17)
(-0.269143 0 -4.4231e-17)
(-0.338693 -0.00485227 -0.0187987)
(-0.338938 0.000192811 0.004633)
(-0.33964 -0.00338467 -0.0154802)
(-0.408733 0 0)
(-0.344243 -0.00027652 -0.00561259)
(-0.342657 0 -1.39887e-17)
(-0.269391 0 1.776e-17)
(-0.336903 0.003128 0.0147858)
(-0.280413 0.00013058 -0.00337596)
(-0.340649 8.97842e-06 0.00100799)
(-0.284742 0 -1.32973e-17)
(-0.284389 0 0)
(-0.343702 0 -1.59131e-17)
(-0.337102 -0.000158446 -0.00416025)
(-0.344464 0 3.19e-17)
(-0.344886 0 0)
(-0.331075 -0.00015559 -0.00408246)
(-0.347297 0 2.30988e-18)
(-0.411847 -0.0112602 0.0548977)
(-0.272293 -0.00520852 -0.00174451)
(-0.336675 -0.00728469 -0.00231198)
(-0.340919 -0.00784196 -0.00249877)
(-0.382983 -0.0468714 0.0274436)
(-0.463061 -0.0219088 0.000809208)
(-0.461421 -0.0217123 0.00149706)
(-0.303249 -0.0203042 0.0288225)
(-0.323918 0.00730416 0.00250557)
(-0.345471 0.00790389 0.00278783)
(-0.339959 0.00772018 0.00271653)
(-0.378927 0.0508978 0.0134161)
(-0.478824 0.0415416 0.00250216)
(-0.430512 0.066961 0.0119642)
(-0.414793 0.0615725 0.0104485)
(-0.360522 -0.0169513 0.00137554)
(-0.464348 -0.0155483 0.0532778)
(-0.384279 -0.00405016 0.0232417)
(-0.34297 -0.00695911 0.0349037)
(-0.386452 -0.00343064 0.022752)
(-0.409254 -0.00134399 0.0106872)
(-0.468619 -0.000921534 0.0121907)
(-0.410329 -0.00135474 0.0107062)
(-0.470743 -0.000680622 0.0120282)
(-0.47452 -0.000674797 0.0091985)
(-0.547884 -0.0014463 0.00934761)
(-0.474751 -0.000333409 0.00888873)
(-0.476999 0.000236671 0.00822104)
(-0.473639 0.000640745 0.0100663)
(-0.47539 0.000228676 0.00833197)
(-0.473109 0.000639938 0.0104504)
(-0.439826 0.00129288 0.0114596)
(-0.408732 0.00201087 0.0115028)
(-0.417272 0.0012217 0.0108721)
(-0.406652 0.00201365 0.0129447)
(-0.384725 0.00330653 0.0229531)
(-0.353653 0.00617956 0.0300862)
(-0.383161 0.00328935 0.0228809)
(-0.390626 0.0127055 0.00124981)
(-0.387636 0.0133214 -0.00200843)
(-0.383188 0.0247658 -0.00232806)
(-0.391954 0.0131017 0.00204798)
(-0.345588 0.00499561 0.0328182)
(-0.341133 0.013006 0.044688)
(-0.389894 0.0130262 0.00204084)
(-0.385952 0.0186042 -0.00166268)
(-0.359433 -0.0123053 -0.0464093)
(-0.292811 -0.00985352 -0.0377925)
(-0.356481 0.0318981 -0.00501611)
(-0.411803 0.0252229 0.0529431)
(-0.35852 0.0320339 -0.00420958)
(-0.355001 0.0217791 0.0455316)
(-0.302582 0.0126612 0.0160714)
(-0.385733 -0.0337815 0.017676)
(-0.430236 -0.0285787 0.00504705)
(-0.483555 -0.0706907 0.0202185)
(-0.342141 -0.0125633 -0.0436985)
(-0.389523 -0.00296469 -0.00487633)
(-0.484445 -0.0508228 0.019275)
(-0.395733 -0.0051053 0.0139706)
(-0.340391 -0.00130798 0.00383688)
(-0.344734 0.00132015 -0.00403213)
(-0.344337 0.00134085 -0.00409134)
(-0.349033 -0.0105423 0.0480444)
(-0.298539 -0.00703393 0.0395103)
(-0.346917 -0.00684241 0.0434593)
(-0.392681 -0.00625867 0.0297711)
(-0.351761 -0.00560967 0.0266686)
(-0.30761 -0.00725119 0.0407173)
(-0.408805 -0.00127263 0.0110933)
(-0.389311 -0.0021005 0.0209104)
(-0.404073 -0.0074519 0.0494889)
(-0.319751 0.0033862 -0.0457624)
(-0.439835 -0.000309113 0.0114311)
(-0.412517 -0.000413526 0.0107273)
(-0.37585 0.00202794 -0.0538204)
(-0.390236 0.00150937 -0.0558819)
(-0.312328 0.00143629 -0.0448382)
(-0.32336 0.00125675 -0.0465113)
(-0.411892 0.00080181 0.0107186)
(-0.412668 0.000289507 0.0107313)
(-0.320095 -0.00126144 -0.0460201)
(-0.336667 0.00124915 -0.0484209)
(-0.382487 -0.00150811 -0.054761)
(-0.355984 -0.00401687 -0.0507972)
(-0.319701 -0.00125871 -0.0459566)
(-0.385389 0.00253145 0.0228933)
(-0.398723 0.00193639 0.0142199)
(-0.352134 0.00421012 0.0399299)
(-0.303849 0.00570636 0.0397277)
(-0.389237 0.00934588 0.0473477)
(-0.294267 0.00507703 0.0380013)
(-0.322561 0.00509389 0.0355793)
(-0.281175 -0.00637981 -0.0279603)
(-0.344813 -0.00658276 -0.0364139)
(-0.396365 -0.00323461 -0.0147724)
(-0.381779 0.00670595 0.0478587)
(-0.282103 0.00222794 0.00977351)
(-0.357098 0.000979596 0.00409297)
(-0.268316 0.00200595 0.00882564)
(-0.30743 0.000712273 0.00296984)
(-0.356356 -0.00183438 -0.00721108)
(-0.32371 0.000707908 0.00292521)
(-0.348913 -0.000766223 -0.00304792)
(-0.306798 -0.00183302 -0.0071911)
(-0.301944 -0.0022094 -0.00853896)
(-0.325884 -0.00206199 -0.00413418)
(-0.318205 -0.00105171 -0.00205347)
(-0.355561 0.00197378 -0.0447193)
(-0.339255 -0.0025908 0.0426795)
(-0.304277 0.00274665 -0.0198967)
(-0.280792 0.00253669 -0.0183673)
(-0.2774 -0.00248324 0.0179788)
(-0.349596 0.00322015 -0.0452335)
(-0.306772 0.00282678 -0.0396924)
(-0.326054 0.000448108 -0.0063372)
(-0.30594 -0.000419098 0.00593021)
(-0.301767 -0.00278446 0.0390846)
(-0.307012 -0.00286249 0.0397191)
(-0.290738 0.00014802 -0.00567583)
(-0.289051 -0.000145439 -0.00564211)
(-0.290452 -0.000146236 -0.00567032)
(-0.289116 -0.000147066 0.00564371)
(-0.290321 0.000146222 0.00566674)
(-0.288812 0.000145578 0.00563858)
(-0.303944 -0.00269337 -0.0393778)
(-0.340986 -0.00304113 -0.04415)
(-0.402694 -0.000530617 -0.00783154)
(-0.29784 0.000393072 0.00578812)
(-0.406485 0.000536415 0.00789987)
(-0.304067 0.00269072 0.039356)
(-0.299537 0.00266233 0.0387795)
(-0.286714 -0.00219157 -0.0187029)
(-0.279752 0.00215488 0.0183916)
(-0.356208 -0.00129995 -0.0453778)
(-0.301803 0.00432633 0.0383578)
(-0.307803 0.0015584 0.039222)
(-0.321351 0.0140746 -0.0308138)
(-0.282386 0 -2.62311e-18)
(-0.34431 -0.00676029 -0.00249892)
(-0.401768 0.00771232 0.00280794)
(-0.343206 0.00656607 0.00239468)
(-0.275735 0.00818212 -0.00432762)
(-0.391081 -0.0112108 0.00596573)
(-0.344043 -0.00014957 -0.00326758)
(-0.31522 0.00398721 -0.0029232)
(-0.297776 0.00371402 -0.00273769)
(-0.386643 -0.0171227 0.0467512)
(-0.292989 0.00773154 0.0262528)
(-0.284518 0.00914575 0.0287417)
(-0.271745 -0.001183 -0.00447368)
(-0.2756 -0.00129638 -0.00457985)
(-0.276757 0.00134698 0.00459491)
(-0.286789 0.00151452 0.00470342)
(-0.275424 0.00129633 0.00456719)
(-0.271589 0.00117779 0.00445689)
(-0.26903 0.000645833 -0.0162633)
(-0.279497 -0.000346779 -0.00511264)
(-0.289789 0.000281684 -0.00533069)
(-0.280313 0.00279693 -0.0181064)
(-0.293234 0.000258159 -0.00538855)
(-0.282838 -0.00035093 -0.00516245)
(-0.286163 -0.000357201 -0.0052112)
(-0.291299 0.000275661 -0.00535227)
(-0.294999 -0.000240533 0.00542342)
(-0.286923 0.000354026 0.00522278)
(-0.291907 0.000362922 0.00532758)
(-0.29356 -0.000257514 0.00539383)
(-0.291081 -0.000281023 0.00534677)
(-0.286023 0.000353321 0.00521214)
(-0.282756 0.000349064 0.00515011)
(-0.293096 -0.00026336 0.00538481)
(-0.287024 -0.0028261 0.0183002)
(-0.298726 -0.00267465 0.0193651)
(-0.400375 -0.00386809 0.0258813)
(-0.272357 -0.0026814 0.0173685)
(-0.289446 0.000593291 -0.00557974)
(-0.272696 0.00190916 -0.0179495)
(-0.29067 0.000595303 -0.00559757)
(-0.289196 0.000395361 -0.00560691)
(-0.293186 0.000600523 -0.00564634)
(-0.293796 -0.000598998 0.00566047)
(-0.291417 -0.000399325 0.00564902)
(-0.307166 -0.000626198 0.00591701)
(-0.290944 -0.00260487 0.0188561)
(-0.292578 -0.000596715 0.00563794)
(-0.28187 -0.000386348 0.00546491)
(-0.290528 -0.000592583 0.00558299)
(-0.291029 -0.000398807 0.0056468)
(-0.278574 -0.000381734 0.00540986)
(-0.288715 -0.000395926 0.00561283)
(-0.28256 0.000371572 0.00548226)
(-0.296469 -0.000554534 -0.00569238)
(-0.308082 -0.0019973 -0.0203674)
(-0.293244 -0.00189321 -0.0194344)
(-0.287044 0.000377219 0.00556854)
(-0.287151 0.000377644 0.00557357)
(-0.290592 0.000381844 0.0056354)
(-0.301045 -0.000563517 -0.00578586)
(-0.354964 -0.000664629 -0.00682121)
(-0.403231 0.000751877 0.00774837)
(-0.353855 0.000660156 0.00680259)
(-0.298106 0.000560938 0.0057585)
(-0.331895 -0.0024745 -0.0218627)
(-0.304567 -0.0023082 -0.0196345)
(-0.286872 -0.00217432 -0.0184906)
(-0.267567 0.000571109 0.00501126)
(-0.28254 0.000603992 0.00529681)
(-0.271764 0.00209466 0.0178736)
(-0.293471 0.00224989 0.0191464)
(-0.280235 0.00212711 0.0185574)
(-0.278248 -0.000374981 -0.00517411)
(-0.347905 0.00683496 -0.041509)
(-0.283037 0.000220168 -0.00518382)
(-0.288956 -0.000388222 -0.00542566)
(-0.274487 -0.000593735 -0.00517524)
(-0.283156 -0.00038184 -0.00527254)
(-0.291033 0.000387034 0.00541185)
(-0.279451 0.000597582 0.00524029)
(-0.287845 0.000615693 0.00539988)
(-0.289515 0.000393607 0.00543434)
(-0.289785 0.000225628 -0.00530903)
(-0.286706 0.000223097 -0.00525381)
(-0.292154 -0.000228969 0.00535223)
(-0.290017 -0.000227484 0.00531284)
(-0.27387 -0.00127437 0.00471)
(-0.281633 0.000383253 0.00528906)
(-0.274146 0.000587106 0.00516774)
(-0.288681 0.000392702 0.00542044)
(-0.285342 -0.000222777 0.0052403)
(-0.289326 -0.000226931 0.0053006)
(-0.409332 -0.00779663 0.0480984)
(-0.323664 -0.00616732 0.0380326)
(-0.333371 0.0104671 -0.0166476)
(-0.39333 -0.0160783 0.0386726)
(-0.394805 0.0381087 -0.0171031)
(-0.370564 0.0416426 4.84915e-06)
(-0.356476 0.011612 2.26514e-17)
(-0.34489 -0.0413394 -5.96512e-05)
(-0.364058 -0.0351713 0.015795)
(-0.429833 -0.0139297 9.7e-20)
(-0.334582 -0.000155871 0.00392541)
(-0.344727 -0.00015361 0.00463672)
(-0.350357 0.000156576 -0.00492481)
(-0.36363 -0.0148325 -0.0406558)
(-0.42679 0.061601 3.83648e-05)
(-0.326283 0.0470941 6.56414e-06)
(-0.434874 -0.0560104 -0.0251235)
(-0.37331 -0.0517996 -8.75027e-06)
(-0.38561 -0.0535077 -1.21812e-05)
(-0.288777 -0.0055312 -0.00204765)
(-0.275118 -0.0175693 -0.00618803)
(-0.29379 -0.00558699 -0.00206535)
(-0.33178 -0.00645843 -0.00240768)
(-0.333037 0.00617818 0.00229266)
(-0.34739 0.00673621 0.00250771)
(-0.337563 0.0169966 0.0172514)
(-0.315729 0.00600206 0.00224335)
(-0.293258 0.00561338 0.00209696)
(-0.356647 -0.0411751 1.16812e-05)
(-0.299225 0.0016606 -0.0376348)
(-0.356564 0.00639309 -0.0487504)
(-0.319896 0.00583079 -0.0408603)
(-0.327237 0.00295727 -0.0213992)
(-0.38378 -0.000134865 0.0212305)
(-0.392687 -0.000581144 0.0036411)
(-0.378879 -0.00355198 0.0230404)
(-0.392838 0.00180018 0.00378589)
(-0.303174 0.00552425 -0.0387259)
(-0.299465 0.00275928 -0.038746)
(-0.321646 0.00455412 -0.0414132)
(-0.355666 0.00327884 -0.0460186)
(-0.415777 0.00587846 -0.0535247)
(-0.329254 0.00154873 -0.0219032)
(-0.290179 -0.00259905 0.0188117)
(-0.405864 -0.00359371 0.0265574)
(-0.358151 -0.00496933 0.0461289)
(-0.321953 -0.00300293 0.041652)
(-0.367448 -0.00336303 0.0222283)
(-0.392674 -0.000569877 0.00362989)
(-0.377691 -0.0035403 0.0229702)
(-0.392676 -0.000549898 0.00361113)
(-0.391785 -0.00100959 0.00996923)
(-0.393489 -0.00126364 0.00441667)
(-0.294315 0.00271209 -0.0380794)
(-0.308763 0.00145179 -0.0205407)
(-0.304474 0.000418393 -0.00591605)
(-0.295569 0.0013899 -0.0196618)
(-0.289732 0.000147423 -0.00565711)
(-0.275324 0.000480625 -0.0184293)
(-0.277591 0.000484586 -0.018579)
(-0.290332 0.000147723 -0.00566685)
(-0.291006 0.000148071 -0.00568009)
(-0.291574 0.000148269 -0.00569065)
(-0.291836 -0.000148426 0.00569547)
(-0.292504 -0.000148695 0.00570929)
(-0.294347 -0.00014973 0.00574643)
(-0.29142 -0.000148187 0.00568681)
(-0.289405 -0.000147251 0.00564822)
(-0.290141 -0.00014769 0.00566281)
(-0.391522 -0.00101056 0.0114035)
(-0.390563 -0.00100812 0.0156847)
(-0.380062 -0.000602535 0.0228053)
(-0.380498 -0.000609577 0.0228324)
(-0.271534 0.000473967 -0.0181756)
(-0.287809 -0.00014488 -0.00561842)
(-0.30281 -0.00268146 -0.0392304)
(-0.29514 -0.00200873 -0.0384566)
(-0.290368 -0.000274028 -0.00565573)
(-0.292656 -0.00132603 -0.0195196)
(-0.28485 -0.00092555 -0.0189942)
(-0.292201 -0.000148626 0.00570437)