/*--------------------------------*- C++ -*----------------------------------*\
  =========                 |
  \\      /  F ield         | OpenFOAM: The Open Source CFD Toolbox
   \\    /   O peration     | Website:  https://openfoam.org
    \\  /    A nd           | Version:  10
     \\/     M anipulation  |
\*---------------------------------------------------------------------------*/
FoamFile
{
    format      ascii;
    class       volVectorField;
    location    "0";
    object      wallShearStress;
}
// * * * * * * * * * * * * * * * * * * * * * * * * * * * * * * * * * * * * * //

dimensions      [0 2 -2 0 0 0 0];

internalField   uniform (0 0 0);

boundaryField
{
    inlet
    {
        type            calculated;
        value           nonuniform List<vector> 0();
    }
    outlet
    {
        type            calculated;
        value           nonuniform List<vector> 0();
    }
    walls
    {
        type            calculated;
        value           uniform (0 0 0);
    }
    drone
    {
        type            calculated;
        value           nonuniform List<vector> 
12529
(
(-0.277339 -0.000124113 -0.00277097)
(-0.374893 -0.0460633 -0.0232615)
(-0.426553 0.0253386 0.00934783)
(-0.45013 0.00552971 0.0134833)
(-0.465636 0.0273425 -0.0387372)
(-0.491295 0.093926 -0.0643205)
(-0.324847 0.0141882 0.000857808)
(-0.411482 0.0515462 0.142206)
(-0.352201 -0.1565 0.0986945)
(-0.373623 -0.0164272 -0.0069364)
(-0.438743 -0.0151662 0.00660688)
(-0.351161 -0.0372691 -0.0276004)
(-0.532361 -0.0932591 -0.0242382)
(-0.38471 -0.112232 0.103153)
(-0.442099 0.0715185 -0.0942929)
(-0.437809 0.0194681 -0.113921)
(-0.350213 -0.0123832 -0.00889491)
(-0.447926 0.0273287 -0.00548441)
(-0.433749 0.0267284 -0.0111788)
(-0.432352 0.0238036 0.134941)
(-0.43177 0.0228871 0.117873)
(-0.500745 0.0559159 0.0126482)
(-0.424351 -0.0447002 0.00416608)
(-0.506566 -0.0590432 0.00359965)
(-0.374674 0.02869 0.0503007)
(-0.357622 -0.0209655 -0.0375685)
(-0.29651 0.0102188 0.0267221)
(-0.378639 0.142334 0.0342489)
(-0.339531 0.0230786 0.00523203)
(-0.370926 -0.0140072 -0.039775)
(-0.475821 0.111276 0.0277165)
(-0.445705 0.107562 -0.00615637)
(-0.358302 0.0181637 -0.033346)
(-0.371038 0.10945 -0.0490147)
(-0.434509 -0.0573452 0.00743149)
(-0.353188 0.0999814 0.00921163)
(-0.434172 0.0291518 0.124383)
(-0.445436 0.101388 0.0206142)
(-0.420468 0.042337 0.0134954)
(-0.462214 0.058863 0.0116737)
(-0.415858 -0.0840823 -0.0854943)
(-0.438769 -0.0475036 0.00144107)
(-0.290879 0.00829729 0.0298471)
(-0.426267 -0.0174761 0.129367)
(-0.432358 -0.0340582 -0.0285837)
(-0.500091 -0.00021392 0.00452686)
(-0.303306 2.54233e-07 0.00111853)
(-0.289547 -0.000129218 -0.00419759)
(-0.346493 0.00365205 -0.0443524)
(-0.270597 -0.000117123 0.00404396)
(-0.316767 -0.00011313 0.0034521)
(-0.361138 -0.0170778 0.00063979)
(-0.303631 0.00266439 -0.0196921)
(-0.33133 0.00290707 -0.0214866)
(-0.308035 0.00270156 -0.0199776)
(-0.268049 0 -9.34223e-18)
(-0.268299 0 0)
(-0.272995 0 9.81407e-19)
(-0.379022 0 -1.46841e-17)
(-0.422781 0 9.97673e-18)
(-0.409231 0 1.2653e-17)
(-0.34231 0.000215399 -0.00494666)
(-0.343188 0 0)
(-0.347283 0 -3.23565e-17)
(-0.340163 -0.000164941 0.00431069)
(-0.277232 -0.000128553 -0.00319909)
(-0.316889 -0.000102193 -0.00255061)
(-0.457537 0.0157955 -0.037328)
(-0.290095 -0.000135668 -0.00342887)
(-0.347032 0.000372884 0.003466)
(-0.290172 -0.000129115 -0.00424075)
(-0.345868 -0.00249788 -0.0246896)
(-0.3498 -5.03278e-07 -6.52898e-06)
(-0.317674 0.000446995 0.00669981)
(-0.341707 0.00377011 0.015115)
(-0.333104 0.00695879 0.0210747)
(-0.452562 0.0288614 -0.0538878)
(-0.351633 0.000230532 0.00236043)
(-0.385844 -0.00340602 -0.0250832)
(-0.272462 -0.0153129 -0.00630413)
(-0.403216 -0.0226616 -0.00934974)
(-0.462947 -0.0259219 -0.0106801)
(-0.324664 -0.0182794 -0.00714291)
(-0.33851 -0.0189726 -0.00747416)
(-0.378474 0.00588517 -0.0315374)
(-0.291857 0.00291785 -0.0366279)
(-0.370451 0.00465066 -0.036082)
(-0.450252 0.0022806 -0.0279004)
(-0.448568 0.00226966 -0.0277989)
(-0.389363 0.00501778 -0.0436066)
(-0.324187 0.00605971 -0.0409007)
(-0.365366 0.00524459 -0.0444652)
(-0.463061 -0.0219088 0.000809208)
(-0.461421 -0.0217123 0.00149706)
(-0.303249 -0.0203042 0.0288225)
(-0.360522 -0.0169513 0.00137554)
(-0.464348 -0.0155483 0.0532778)
(-0.34297 -0.00695911 0.0349037)
(-0.349033 -0.0105423 0.0480444)
(-0.355561 0.00197378 -0.0447193)
(-0.304277 0.00274665 -0.0198967)
(-0.280792 0.00253669 -0.0183673)
(-0.34431 -0.00676029 -0.00249892)
(-0.386643 -0.0171227 0.0467512)
(-0.271745 -0.001183 -0.00447368)
(-0.2756 -0.00129638 -0.00457985)
(-0.26903 0.000645833 -0.0162633)
(-0.279497 -0.000346779 -0.00511264)
(-0.289789 0.000281684 -0.00533069)
(-0.280313 0.00279693 -0.0181064)
(-0.293234 0.000258159 -0.00538855)
(-0.282838 -0.00035093 -0.00516245)
(-0.286163 -0.000357201 -0.0052112)
(-0.291299 0.000275661 -0.00535227)
(-0.394805 0.0381087 -0.0171031)
(-0.370564 0.0416426 4.84915e-06)
(-0.356476 0.011612 2.26514e-17)
(-0.334582 -0.000155871 0.00392541)
(-0.344727 -0.00015361 0.00463672)
(-0.42679 0.061601 3.83648e-05)
(-0.326283 0.0470941 6.56414e-06)
(-0.288777 -0.0055312 -0.00204765)
(-0.275118 -0.0175693 -0.00618803)
(-0.29379 -0.00558699 -0.00206535)
(-0.299225 0.0016606 -0.0376348)
(-0.356564 0.00639309 -0.0487504)
(-0.319896 0.00583079 -0.0408603)
(-0.327237 0.00295727 -0.0213992)
(-0.303174 0.00552425 -0.0387259)
(-0.322426 -0.02403 0.0351101)
(-0.338513 -0.0066034 -0.0024224)
(-0.297827 -0.0194254 -0.00705537)
(-0.312307 -0.0182313 0.0313484)
(-0.31816 -0.0140855 0.0384729)
(-0.309992 -0.013729 0.0374873)
(-0.264614 0 3.37291e-17)
(-0.342413 0 1.58876e-17)
(-0.338226 0.00458192 -0.0182447)
(-0.342478 0 -4.29185e-18)
(-0.341316 0.000671908 -0.00864116)
(-0.304035 1.18485e-05 0.00137488)
(-0.405462 0.0359637 -0.0392926)
(-0.326401 0.0067318 0.0204335)
(-0.31476 -0.000162863 -0.00475408)
(-0.285259 -0.000124214 -0.00260786)
(-0.277197 -0.000118399 -0.00434539)
(-0.283274 -0.000126948 -0.00400182)
(-0.275143 -0.000120909 -0.00387192)
(-0.278612 -0.00012126 -0.00254613)
(-0.280813 -0.000126226 -0.00314759)
(-0.277472 -0.000117847 -0.00435335)
(-0.279038 -0.00415812 -0.00184809)
(-0.356209 0.0019833 -0.0448061)
(-0.35279 0.00318583 -0.0230707)
(-0.29282 0.00264389 -0.019146)
(-0.272359 0.00246055 -0.0178148)
(-0.286535 0.00258815 -0.0187348)
(-0.49447 0.0579135 0.0407361)
(-0.365408 -0.0264422 -0.00831133)
(-0.290909 -0.0201972 -0.00721331)
(-0.310327 -0.023401 -0.00696964)
(-0.283551 -0.0185194 -0.00671991)
(-0.400906 -0.0186613 0.000167895)
(-0.405395 -0.0157212 -0.00315257)
(-0.474922 -0.0231098 -0.00403327)
(-0.475886 -0.021263 -0.0023725)
(-0.549751 -0.026789 -0.00469596)
(-0.406523 -0.0120083 0.000925498)
(-0.30233 -0.00890884 -0.0201412)
(-0.39161 -0.0182438 0.000307023)
(-0.389612 -0.0176934 -0.00181612)
(-0.389989 -0.00819654 0.0283436)
(-0.349954 -0.00862531 0.0379128)
(-0.39122 -0.0173832 0.0473335)
(-0.319863 -0.00675489 0.023288)
(-0.298225 -0.00741396 0.0323588)
(-0.286998 -0.00150063 -0.00468763)
(-0.276925 -0.00134545 -0.00460731)
(-0.322364 -0.00356224 -0.00334329)
(-0.390888 0.0028831 -0.0278008)
(-0.287519 0.00056664 -0.00535465)
(-0.328494 0.00322334 -0.0215129)
(-0.288195 0.00287273 -0.0186137)
(-0.292051 0.00291191 -0.018858)
(-0.301232 0.00300238 -0.0194513)
(-0.293695 0.00025256 -0.00539935)
(-0.292082 -0.000364783 -0.00531937)
(-0.287059 -0.000358263 -0.00522738)
(-0.295195 0.000235848 -0.00542774)
(-0.291905 0.00056633 -0.00540359)
(-0.267899 0.000529756 -0.00500214)
(-0.289482 0.000567456 -0.00538163)
(-0.282893 0.000559419 -0.00528078)
(-0.292382 0.000567451 -0.00541646)
(-0.289986 0.000569225 -0.00539035)
(-0.293753 0.000569855 -0.00543743)
(-0.285767 0.000565174 -0.00533496)
(-0.293444 -0.000366589 -0.00534501)
(-0.29603 0.000230341 -0.00543771)
(-0.291111 0.000569401 -0.00541378)
(-0.294536 0.000571566 -0.00545596)
(-0.274337 0.000714761 -0.00506102)
(-0.286614 0.000758929 -0.00532249)
(-0.279218 0.00074331 -0.00522266)
(-0.288563 0.000763874 -0.00535614)
(-0.285987 0.00258335 -0.0186987)
(-0.27892 0.00251928 -0.0182412)
(-0.329091 0.00293237 -0.0214329)
(-0.276109 0 -1.35919e-17)
(-0.277944 0 1.44955e-17)
(-0.282656 0 -1.40278e-17)
(-0.273837 0 0)
(-0.281098 0 -1.35822e-17)
(-0.282884 0 4.38895e-18)
(-0.276274 0 0)
(-0.272777 0 -2.86904e-17)
(-0.266506 0 1.28999e-17)
(-0.276329 0 -3.66723e-18)
(-0.461022 -0.0660599 -5.56466e-05)
(-0.384759 -0.0477972 0.0249548)
(-0.4561 -0.0653527 3.09917e-05)
(-0.375615 -0.0344638 -4.2809e-18)
(-0.335166 -0.00105219 -0.00356056)
(-0.317951 -0.000750328 -0.00183432)
(-0.33974 -0.0402912 3.17449e-06)
(-0.313883 -0.00200126 -0.00487288)
(-0.336195 -0.000237195 -0.000964389)
(-0.484132 -0.0575695 0.0282464)
(-0.416233 0 1.6996e-17)
(-0.409506 -0.0375503 5.39839e-05)
(-0.371477 0.0106161 2.11778e-17)
(-0.336967 0.0410053 0.00112089)
(-0.42925 0.0123427 0.0391447)
(-0.415958 0 -1.69787e-17)
(-0.448267 -0.0375028 -5.5282e-18)
(-0.456325 0.0131527 0.0416271)
(-0.356641 0 1.6924e-17)
(-0.419841 0 4.90604e-18)
(-0.498866 0 -3.96976e-18)
(-0.353065 0 0)
(-0.261589 -0.00012247 -0.0033094)
(-0.333265 -0.00014822 0.00334976)
(-0.436978 0.0630717 -3.66572e-05)
(-0.34643 -0.000149275 0.00318761)
(-0.35096 -0.000155541 0.00540131)
(-0.323044 0.00628571 0.0293556)
(-0.345262 -0.000155934 0.00429124)
(-0.439291 0.0634055 1.17036e-05)
(-0.349562 -0.0001606 0.00378215)
(-0.344684 0.00652954 0.0310272)
(-0.354563 -0.000158688 0.00486227)
(-0.284303 -0.000127698 -0.00329771)
(-0.442704 0.0638977 -8.01889e-18)
(-0.334004 0.0482087 3.72336e-06)
(-0.346313 -0.000146693 0.00307341)
(-0.47031 0.0678829 -8.75864e-18)
(-0.347588 -0.00014878 0.00316007)
(-0.387122 0.0101898 0.0386781)
(-0.328594 0.00639389 0.0298576)
(-0.46568 0.00885801 0.0419948)
(-0.28581 -0.000128591 -0.0028554)
(-0.288009 -0.0001348 -0.00374822)
(-0.292061 -0.000124368 -0.00264391)
(-0.289118 -0.000135098 -0.00379641)
(-0.324572 0.0450353 9.10418e-18)
(-0.478445 0.00912281 0.0431198)
(-0.285595 -0.000128238 -0.00325177)
(-0.289436 -0.000134573 -0.00329247)
(-0.288473 -0.000127915 -0.00424757)
(-0.2837 -0.000123337 -0.00259032)
(-0.288085 -0.000125401 -0.00263314)
(-0.329502 0.000197192 0.00204267)
(-0.315433 0.00199339 0.0105543)
(-0.288126 -0.00012554 -0.00264016)
(-0.320307 0.00167313 0.00905197)
(-0.290151 -0.000126342 -0.00265231)
(-0.28837 -0.000123221 -0.00452082)
(-0.292482 -0.000128649 -0.00437541)
(-0.321886 -0.000164354 -0.00461913)
(-0.3163 -0.000107523 -0.00324737)
(-0.29474 -0.000116505 -0.00421955)
(-0.288937 -0.000125718 -0.00263982)
(-0.294661 -0.000134479 -0.003569)
(-0.345998 -0.000129017 -0.00652912)
(-0.29269 -0.000125002 -0.00458865)
(-0.351506 -0.00012021 -0.00253422)
(-0.342235 -9.71652e-05 -0.00716596)
(-0.350749 -0.000140141 -0.00293056)
(-0.341197 1.84311e-08 -0.0086713)
(-0.509941 0.0707623 -1.23839e-05)
(-0.459286 0.00989524 0.0293826)
(-0.360693 0.052061 -1.58069e-06)
(-0.349139 0.0503765 2.56047e-06)
(-0.349206 0.0504275 7.6507e-06)
(-0.378708 0.0525494 2.81712e-05)
(-0.36776 0.0510258 2.76189e-06)
(-0.383015 0.0531495 2.06569e-05)
(-0.371861 0.0516037 -1.64712e-05)
(-0.352404 0.0488872 1.82989e-05)
(-0.352456 0.048917 1.83302e-05)
(-0.38387 0.0532623 4.72196e-06)
(-0.504384 0.0595049 0.0408039)
(-0.323796 0.0467355 -2.30364e-06)
(-0.364409 0.0525972 1.127e-05)
(-0.391424 0.0564965 1.68712e-05)
(-0.390112 0.056307 -7.29096e-06)
(-0.409211 0.0501143 0.0292872)
(-0.324275 0.0468046 7.30149e-06)
(-0.36528 0.0527229 -1.07109e-05)
(-0.32908 0.0474979 7.03488e-06)
(-0.395109 0.0570284 -1.5266e-05)
(-0.466265 0.0571008 0.0333746)
(-0.366301 0.0528704 -1.20303e-05)
(-0.401155 0.0579011 2.23611e-05)
(-0.408355 0.00924914 -0.0390969)
(-0.368921 0.0171226 -0.0431971)
(-0.391853 0.0171655 -0.0444342)
(-0.371197 0.051507 -3.87841e-06)
(-0.370881 0.0514663 1.57199e-05)
(-0.385341 0.0534691 2.40645e-06)
(-0.476541 0.0552783 -0.0401462)
(-0.370248 0.0433758 0.0276211)
(-0.447554 0.0440957 0.0406266)
(-0.480036 0.058793 0.0343664)
(-0.416321 0.048077 5.62093e-07)
(-0.41738 0.048199 -4.79684e-08)
(-0.341362 -0.0181599 -0.00760259)
(-0.389436 -0.0212075 -0.00923848)
(-0.372821 -0.0181539 -0.0175596)
(-0.361791 -0.0334216 -0.0245732)
(-0.300868 -0.0154389 -0.00692554)
(-0.286519 -0.00396611 -0.00229915)
(-0.329359 -0.012855 -0.0107368)
(-0.339928 -0.00519859 -0.00233378)
(-0.323551 -0.0156733 -0.00717701)
(-0.280466 -0.00516299 -0.00191853)
(-0.280294 -0.0186326 -0.00604888)
(-0.289344 -0.00405565 -0.00235323)
(-0.322241 -0.00439779 -0.00238707)
(-0.34582 -0.00530201 -0.00239782)
(-0.283942 -0.00517841 -0.00194941)
(-0.300859 0.00187946 -0.0380163)
(-0.42563 -0.0335239 -0.0513862)
(-0.364669 -0.00466535 -0.0494671)
(-0.453404 0.0083551 -0.0600534)
(-0.353287 0.00591336 -0.0459771)
(-0.399121 0.0112279 -0.0550848)
(-0.399308 0.00750394 -0.0527723)
(-0.347906 0.00673592 -0.045806)
(-0.3905 0.000757026 -0.0226901)
(-0.442772 -0.0216327 -0.00804969)
(-0.469417 -0.0224992 -0.00556717)
(-0.34908 0.0402979 1.04789e-05)
(-0.438283 -0.0214156 -0.00797085)
(-0.350481 0.0404661 -3.38783e-06)
(-0.427213 -0.0208907 -0.00779437)
(-0.403449 -0.000693476 -0.00511049)
(-0.515329 -0.0247447 -0.00684204)
(-0.45182 -0.0220581 -0.00821654)
(-0.390699 0.00216917 -0.0238539)
(-0.392983 0.00218139 -0.023993)
(-0.450741 0.00413664 -0.0272132)
(-0.43858 0.00121612 -0.0256558)
(-0.390841 0.00353647 -0.0237667)
(-0.395321 0.00219984 -0.0241381)
(-0.404239 0.000255466 -0.00803495)
(-0.417324 -2.84348e-05 -0.0210499)
(-0.447764 0.00492718 -0.0293954)
(-0.44016 0.00590872 -0.032727)
(-0.292286 0.00547566 -0.0368833)
(-0.403428 0.00359859 -0.0262926)
(-0.357794 0.0061381 -0.048932)
(-0.370838 0.00791592 -0.0502477)
(-0.427797 0.00397787 -0.0257959)
(-0.386325 0.00354064 -0.0234317)
(-0.458606 -0.00660336 0.0143642)
(-0.376192 0.0116763 -0.0190714)
(-0.43726 0.000160451 -0.0399554)
(-0.41718 0.0229493 -0.0352814)
(-0.32818 -0 1.66658e-17)
(-0.335759 -7.84447e-05 3.24583e-05)
(-0.324727 0 1.49054e-17)
(-0.524301 0.0532347 0.0440965)
(-0.329254 0 0)
(-0.332445 -0.000278923 0.000114547)
(-0.328064 0 -2.11496e-17)
(-0.394256 0.0440051 0.0353197)
(-0.304896 -0.0413834 -0.00824435)
(-0.340488 -0.0416766 -0.00609434)
(-0.445563 -0.0210573 -0.00245318)
(-0.446982 -0.021136 -0.00245396)
(-0.328221 -0.0495193 -0.00913793)
(-0.321167 -0.038402 -0.00684443)
(-0.346135 -0.0410641 -0.00379445)
(-0.375776 -0.0216128 0.0205808)
(-0.396289 -0.020337 0.015159)
(-0.316895 -0.0216367 -0.0076919)
(-0.28272 -0.0184943 -0.0067187)
(-0.311706 -0.0203319 -0.00738144)
(-0.398827 -0.0398667 0.0247308)
(-0.360047 -0.0276942 0.0245976)
(-0.446412 -0.0365272 0.0307682)
(-0.377246 -0.0253235 0.0256114)
(-0.337392 -0.0127566 0.0107405)
(-0.292155 -0.0118322 0.00935768)
(-0.325783 -0.0125138 0.0102885)
(-0.459723 -0.021728 -0.00253144)
(-0.461344 -0.0218028 -0.00254211)
(-0.398144 -0.0175584 0.00310424)
(-0.40033 -0.00398938 0.00981455)
(-0.38961 -0.0126592 0.00905657)
(-0.369649 -0.0186167 0.0133509)
(-0.390886 -0.0182804 0.00203621)
(-0.379712 -0.0186726 0.00791418)
(-0.393964 -0.00445787 0.0102068)
(-0.381243 -0.0110053 0.0121169)
(-0.411654 -0.0232776 0.0227271)
(-0.453767 -0.0282581 0.0129365)
(-0.358796 -0.0113039 0.046166)
(-0.410245 -0.00403682 0.00895033)
(-0.547838 -0.00553446 0.0067241)
(-0.397933 -0.00450642 0.0103162)
(-0.440104 -0.00498085 0.0114253)
(-0.304085 -0.0129611 0.0237236)
(-0.381482 -0.019667 0.0362907)
(-0.312293 -0.0182278 0.0313383)
(-0.338758 -0.0147503 0.0244499)
(-0.334156 -0.0134241 0.0174779)
(-0.319784 -0.0139468 0.0189033)
(-0.289427 -0.0076976 0.018432)
(-0.348912 -0.011871 0.0479663)
(-0.365513 -0.0124511 0.0502743)
(-0.391202 -0.00825896 0.0284877)
(-0.340318 -0.00847126 0.0215915)
(-0.348255 -0.010057 -0.0399414)
(-0.33238 -0.00938003 -0.0389766)
(-0.355379 0.00624913 -0.0452285)
(-0.3061 0.00538228 -0.0389591)
(-0.365568 0.0064241 -0.0465234)
(-0.300306 0.00527774 -0.0382178)
(-0.477032 -0.0169395 -0.0472043)
(-0.377498 -0.0140207 -0.0231011)
(-0.303447 7.23931e-05 0.0038204)
(-0.317059 0.000288422 -0.00569303)
(-0.31547 0.000104813 0.00768185)
(-0.403365 0.00103248 -0.00740472)
(-0.347712 0.000885183 -0.00657466)
(-0.356338 0.000904727 -0.00673265)
(-0.293396 0.000755963 -0.00559001)
(-0.301136 0.000776088 -0.00573606)
(-0.339206 -0.00166762 -0.0132022)
(-0.351821 0.0508216 4.28718e-06)
(-0.351864 0.0507275 3.03309e-06)
(-0.444461 0.0641514 -1.83616e-05)
(-0.377248 -0.0360802 -0.0315741)
(-0.401015 -0.0119712 -0.047401)
(-0.280249 -0.00791212 -0.032864)
(-0.293787 0.00520326 -0.0373772)
(-0.324349 0.00569984 -0.0412809)
(-0.30393 -0.000102844 0.00401645)
(-0.305826 -7.84931e-05 0.00479127)
(-0.349873 -0.000178009 0.00875756)
(-0.438531 0.0632855 -0.00113478)
(-0.310329 -0.0116 -0.0367954)
(-0.267354 -0.00100038 -0.00384026)
(-0.375452 -0.0116101 -0.0112987)
(-0.349175 0.0346295 -0.0152843)
(-0.320292 0.0422604 -0.0012643)
(-0.327063 -0.0001449 0.00328153)
(-0.309596 0.00706543 -1.85074e-18)
(-0.376397 0.0522318 -1.01785e-05)
(-0.289383 -0.000135068 -0.00338383)
(-0.288019 -0.000122942 -0.00451381)
(-0.28846 -0.000129193 -0.00414834)
(-0.289836 0 2.36075e-18)
(-0.285194 -8.84721e-06 -0.00162909)
(-0.28554 -0.000124173 -0.00260886)
(-0.353159 0.00252437 -0.0448966)
(-0.410477 -0.00483055 -0.0537452)
(-0.266533 -0.000117521 0.00403412)
(-0.265448 -0.000119446 0.00347935)
(-0.263914 -0.000119584 0.00388188)
(-0.299068 -0.000128875 0.00273281)
(-0.464436 0.0177769 0.0505016)
(-0.27687 -0.000120313 0.00438087)
(-0.413567 0.0593502 -0.00636486)
(-0.355127 0.00826599 0.0341566)
(-0.416522 5.49648e-07 0.0106167)
(-0.545648 -0.00404839 0.0018566)
(-0.470556 0.012361 0.0509132)
(-0.366822 -0.0187394 -0.0242825)
(-0.357695 -0.0190832 -0.0413273)
(-0.367414 -0.00259356 -0.00442765)
(-0.375909 -0.0177801 0.000665936)
(-0.356776 -0.0166697 -6.19092e-05)
(-0.374257 -0.0174991 -0.000550022)
(-0.376533 -0.0117429 0.0368589)
(-0.273831 -0.00578273 0.0199402)
(-0.336868 -0.00931423 0.0253906)
(-0.303983 -0.0104788 0.0287586)
(-0.291841 -0.00726332 0.0321701)
(-0.3166 -0.00787248 0.0359184)
(-0.311264 -0.00185275 -0.0192158)
(-0.394201 -0.00234667 -0.0243336)
(-0.304419 0.0019138 -0.0195654)
(-0.400008 0.00264067 -0.0258157)
(-0.291186 0.00255483 -0.0188883)
(-0.327638 0.0029081 -0.0212098)
(-0.300466 0.00268325 -0.0194539)
(-0.283943 0.00272268 -0.0181566)
(-0.275133 0.00250662 -0.0178927)
(-0.405579 0.00355741 -0.0263043)
(-0.399808 0.00363392 -0.025939)
(-0.354727 0.00338498 -0.0226443)
(-0.406627 0.00376231 -0.0260342)
(-0.35493 0.00311311 -0.0230183)
(-0.299125 0.00262343 -0.0193961)
(-0.326691 0.00286633 -0.0211907)
(-0.268743 0 3.59266e-18)
(-0.273547 0 2.15615e-17)
(-0.276563 0 0)
(-0.271919 0 3.05446e-17)
(-0.280336 0 -8.36075e-18)
(-0.278055 0 -1.36367e-17)
(-0.269409 0 0)
(-0.276144 0 1.38608e-17)
(-0.269521 0 2.20346e-17)
(-0.339964 -0.000833175 -0.00963311)
(-0.337925 -0.00292675 -0.0292171)
(-0.345601 0 -1.6167e-17)
(-0.358474 0 -2.16282e-18)
(-0.35723 0 1.69953e-17)
(-0.425172 0 1.01411e-17)
(-0.339505 -0.00156778 -0.0181385)
(-0.417002 0 -1.71671e-17)
(-0.344178 0 0)
(-0.37931 0 0)
(-0.342035 0.00240655 -0.0283589)
(-0.351544 0 3.27856e-17)
(-0.345472 0 0)
(-0.413525 0 -1.26757e-17)
(-0.422598 0 -1.9917e-17)
(-0.422277 0 -6.24182e-18)
(-0.418161 0.0534962 -0.0268304)
(-0.318091 0.00624867 -0.01945)
(-0.339093 -0.000131544 0.00253407)
(-0.453116 0.010354 0.0298099)
(-0.272366 -0.000118593 -0.00250263)
(-0.281724 -0.000123349 -0.00262391)
(-0.37841 0.0514243 -0.0165866)
(-0.45592 0.0554963 0.0330658)
(-0.470446 0.054129 0.0377021)
(-0.51611 -0.000241991 0.0063566)
(-0.444949 -0.000200431 0.00552515)
(-0.403168 0.00496832 0.0341346)
(-0.284783 -0.000130596 -0.00319729)
(-0.301946 -9.76331e-05 -0.00268929)
(-0.322451 -0.000142818 -0.00519216)
(-0.453099 0.0628732 -1.98566e-05)
(-0.435606 0.0508019 -0.036231)
(-0.289371 -0.000128558 -0.00278153)
(-0.29002 -0.00012864 -0.00278347)
(-0.288855 -0.000125617 -0.0026383)
(-0.348133 -0.000142092 -0.00295666)
(-0.339002 0.000966554 0.00688246)
(-0.290631 -0.00013591 -0.00346547)
(-0.289702 -0.000123685 -0.00454044)
(-0.290718 -0.000128838 -0.00428109)
(-0.313805 -7.78256e-05 -0.00153442)
(-0.30487 -1.38154e-05 -0.00119319)
(-0.300588 3.33278e-06 0.000364828)
(-0.346962 -0.000154172 -0.00362149)
(-0.48926 -0.000218856 -0.0048646)
(-0.295389 -0.00012851 -0.00269821)
(-0.348004 0.00505028 -0.0289233)
(-0.359077 0.00300878 -0.0249252)
(-0.351918 -9.22494e-05 -0.00756921)
(-0.313216 -0.000187268 -0.00393063)
(-0.33645 -5.08285e-05 -0.0067568)
(-0.35839 0.000323076 0.00311034)
(-0.445688 0.0618488 6.39527e-05)
(-0.359365 -0.000135782 -0.00262276)
(-0.345939 -0.000112016 -0.00198701)
(-0.413906 -0.000185876 -0.00398534)
(-0.327855 0.00686204 -0.0304135)
(-0.401123 0.0508085 -0.0229376)
(-0.38299 0.000947346 -0.016634)
(-0.473884 0.0578758 -0.034109)
(-0.355719 -4.77917e-05 -0.000669513)
(-0.352822 0.00678839 0.0213157)
(-0.46585 0.0203158 0.0441007)
(-0.459542 0.0637657 7.29826e-06)
(-0.438116 0.0536812 0.0319854)
(-0.456515 0.0633413 -3.5548e-06)
(-0.270652 0.000256849 0.00278385)
(-0.38971 -0.00325276 -0.0142337)
(-0.338705 0.00814032 0.0228483)
(-0.383788 0.0239657 0.0320864)
(-0.488021 0.0597716 0.0349413)
(-0.317921 -9.32232e-05 -0.00729929)
(-0.350198 -0.000444352 -0.00736699)
(-0.357911 0.00847648 -0.0346888)
(-0.474813 0.0182173 -0.0525232)
(-0.460306 0.0638661 8.53722e-06)
(-0.447131 0.0620486 2.39284e-05)
(-0.514942 0.0714498 -3.30937e-05)
(-0.454814 0.0463367 -0.0464811)
(-0.51917 0.0720369 1.0807e-05)
(-0.28953 0 -1.04226e-17)
(-0.282232 -6.85721e-05 -0.00103183)
(-0.273674 -8.70627e-09 -1.12865e-07)
(-0.285098 0 -8.53153e-19)
(-0.288352 0 1.07595e-17)
(-0.289134 0 -1.22509e-17)
(-0.452907 0.0653708 -2.74769e-05)
(-0.416245 0.0512498 0.0295561)
(-0.461462 0.0640225 1.11707e-06)
(-0.528459 0.0733419 -1.02581e-05)
(-0.428739 0.0502264 -0.0352821)
(-0.528415 0.0733453 3.04164e-05)
(-0.288387 -0.0161663 -0.00666465)
(-0.303002 -0.016861 -0.00695987)
(-0.326333 -0.0183623 -0.00756204)
(-0.325567 -0.0174872 -0.00736298)
(-0.38977 -0.0210104 -0.0091196)
(-0.276034 -0.00777484 -0.00452769)
(-0.280502 -0.00390505 -0.00226575)
(-0.385499 -0.0230084 -0.00808984)
(-0.469767 -0.0310962 -0.0100371)
(-0.277131 -0.0157451 -0.00593419)
(-0.333377 -0.0186354 -0.00713478)
(-0.399138 -0.00712049 -0.00266466)
(-0.331799 -0.0055719 -0.00212607)
(-0.372294 -0.0209093 -0.00849931)
(-0.283823 -0.00386911 -0.00225469)
(-0.282346 -0.00388229 -0.00225338)
(-0.33548 -0.00570603 -0.00219593)
(-0.34686 -0.00444343 -0.0470515)
(-0.352599 0.00260501 -0.0448749)
(-0.298516 0.00220617 -0.0379896)
(-0.346266 0.00408898 -0.0442634)
(-0.418527 -0.0108925 -0.0330292)
(-0.393148 0.00748809 -0.051813)
(-0.364565 0.00453832 -0.0404946)
(-0.304409 0.00578444 -0.0384782)
(-0.414491 0.00774689 -0.0522902)
(-0.323779 0.00605399 -0.0408491)
(-0.363768 0.00680109 -0.0458919)
(-0.357419 0.00671878 -0.0470802)
(-0.409223 0.00783627 -0.0537913)
(-0.467021 0.00886859 -0.0614735)
(-0.337726 0.00634764 -0.0444864)
(-0.357872 0.00180834 -0.0221762)
(-0.357997 0.000503424 -0.0207901)
(-0.468747 0.0595422 -0.0266749)
(-0.446772 -0.00201644 -0.00448889)
(-0.489994 -0.00374337 -0.00598992)
(-0.434245 -0.00545845 -0.00544489)
(-0.42846 -0.0115656 -0.0279507)
(-0.607118 -0.0219641 -0.0395507)
(-0.360066 0.00182124 -0.0223104)
(-0.360497 0.00183666 -0.022325)
(-0.375444 0.000536302 -0.0034876)
(-0.353045 0.00318684 -0.0214776)
(-0.479645 -0.002127 -0.00479701)
(-0.546496 -0.00244789 -0.00540563)
(-0.449242 0.00227368 -0.0278409)
(-0.413082 0.00135434 -0.0390207)
(-0.522483 0.00471009 -0.0317851)
(-0.305515 0.00571245 -0.0385423)
(-0.39517 0.00757102 -0.0518754)
(-0.387623 0.00753569 -0.0508356)
(-0.368397 0.00052751 -0.00342297)
(-0.3574 0.00543523 -0.0459481)
(-0.461291 0.00416775 -0.028064)
(-0.406887 -0.0356669 0.0449328)
(-0.291461 -0.000124694 0.00264213)
(-0.283129 -0.000123204 0.00447816)
(-0.282401 -0.000127433 0.00418639)
(-0.419385 0.002247 -0.0146086)
(-0.319267 -0.0428311 -0.0102281)
(-0.380316 0.00898291 0.0367541)
(-0.453694 0.0607545 0.0180782)
(-0.340279 0.00803301 0.0328725)
(-0.394771 -0.0253639 -0.00231744)
(-0.466482 -0.0219422 8.93725e-05)
(-0.359433 -0.0468574 -0.00977451)
(-0.491672 -0.0367327 0.0535344)
(-0.323163 -0.0227475 0.0348724)
(-0.46948 -0.0369464 0.0461158)
(-0.397804 -0.0208236 -4.48406e-05)
(-0.454993 -0.0221106 0.0064286)
(-0.395188 -0.00869311 -0.00314105)
(-0.278197 -0.0208864 -0.00635442)
(-0.318643 -0.0230594 0.0214052)
(-0.378074 -0.0268978 0.0261165)
(-0.396276 -0.0312651 -0.000950092)
(-0.293774 -0.0221133 -0.0061115)
(-0.328363 -0.0258475 -0.000492323)
(-0.39696 -0.0271443 0.0422882)
(-0.377007 -0.027094 0.0305011)
(-0.383653 -0.00245179 0.00106882)
(-0.387914 0.000271444 -0.00305988)
(-0.384557 -0.0018989 -0.000356138)
(-0.441537 -0.00345188 0.00430128)
(-0.44493 -0.00355398 0.00440358)
(-0.411062 -0.00328292 0.00406251)
(-0.375543 -0.0176479 0.00162919)
(-0.355348 -0.0166424 0.00342904)
(-0.372829 -0.0179662 0.00305985)
(-0.368104 -0.00688594 0.0221078)
(-0.360153 -0.00841998 0.0232735)
(-0.403929 -0.0124957 0.0476092)
(-0.362161 -0.00288214 0.00359148)
(-0.542375 -0.0043301 0.00538204)
(-0.374542 -0.00699818 0.0224909)
(-0.353106 -0.00852539 0.0310651)
(-0.378685 -0.00707201 0.0227383)
(-0.314873 -0.0171181 0.0191534)
(-0.372149 -0.0212092 0.0242813)
(-0.372407 -0.0255409 0.039613)
(-0.29217 -0.0109594 0.0239856)
(-0.303825 -0.00821487 0.0194507)
(-0.315082 -0.00868832 0.0203568)
(-0.279783 -0.00816957 0.0188247)
(-0.379142 -0.0101521 0.0241991)
(-0.372045 -0.0133227 0.0518614)
(-0.357956 -0.0113208 0.0502935)
(-0.288816 -0.00609853 0.0210378)
(-0.388336 -0.0100723 0.0275426)
(-0.282747 -0.00712174 0.0187861)
(-0.412981 -0.0120514 -0.0469973)
(-0.34899 -0.0060327 -0.0427578)
(-0.296034 0.00480233 -0.0342301)
(-0.29536 0.00266909 -0.0193166)
(-0.34653 0.00608923 -0.044102)
(-0.293334 0.00515623 -0.0373313)
(-0.324588 0.00571953 -0.0413171)
(-0.288294 0.00260456 -0.0188567)
(-0.371006 0.0263458 -0.0275355)
(-0.426344 -0.0346461 -0.0501783)
(-0.330704 -0.000196782 0.00930781)
(-0.377679 -0.00314474 0.0201372)
(-0.349897 -0.00163413 0.0146455)
(-0.256397 -0.000302391 -0.00274289)
(-0.274249 -0.000119201 0.0043367)
(-0.277744 -0.000121016 0.00439774)
(-0.276648 -0.000128501 0.00370268)
(-0.339353 -0.000147589 0.00536675)
(-0.282689 -0.00192505 -0.00425071)
(-0.283609 -0.00190874 -0.00420126)
(-0.273744 -0.00123683 -0.00454725)
(-0.335157 -0.00230272 -0.00513607)
(-0.274734 -0.00126777 -0.00456644)
(-0.317477 -0.00325586 -0.00354021)
(-0.290717 -0.00848618 -0.0330855)
(-0.379445 -0.0110863 -0.0432801)
(-0.379889 -0.0110511 -0.0431105)
(-0.379895 -0.0110452 -0.043112)
(-0.379711 -0.0110629 -0.0431633)
(-0.268323 -0.00170273 -0.0162887)
(-0.281584 0.000768531 -0.0146267)
(-0.272261 -0.0008154 -0.0107434)
(-0.284913 -0.000353519 -0.0052103)
(-0.286813 0.000289334 -0.00530907)
(-0.289084 -0.000358548 -0.00528702)
(-0.271109 0.00270405 -0.0175096)
(-0.267162 0.000868487 -0.00638934)
(-0.270761 0.00258347 -0.0172769)
(-0.278285 0.00116772 -0.00764555)
(-0.352426 0.00167945 -0.0111038)
(-0.292533 -0.000363174 -0.00535244)
(-0.292723 0.000264199 -0.00538054)
(-0.284676 -0.000354334 -0.00519225)
(-0.287613 -0.000356907 -0.00526222)
(-0.290008 -0.000359989 -0.00529283)
(-0.28552 -0.000356676 -0.00521007)
(-0.292132 0.000270066 -0.00536877)
(-0.290716 -0.000360867 -0.00531889)
(-0.286643 0.000814022 -0.00538515)
(-0.292929 0.000831215 -0.00550008)
(-0.291218 0.000826836 -0.00547172)
(-0.288738 0.000819515 -0.00542222)
(-0.291524 0.00114998 -0.00858617)
(-0.289545 0.00074605 -0.00551515)
(-0.286528 0.00108155 -0.00810412)
(-0.307286 0.000786008 -0.00582508)
(-0.402463 0.00101974 -0.00759384)
(-0.288751 0.0124072 1.64586e-06)
(-0.283254 0.0210628 0.000480455)
(-0.341483 -0.000159714 0.00419377)
(-0.334434 -0.00015334 0.00483314)
(-0.346177 0.00514173 0.0112629)
(-0.332866 1.88256e-05 0.00843896)
(-0.335229 -0.000150815 0.00415371)
(-0.342693 -0.00015978 0.00451968)
(-0.338435 -0.00015282 0.00419991)
(-0.33854 -0.000152772 0.00431542)
(-0.342769 0.0494736 -4.67165e-06)
(-0.342776 0.0494751 -1.52615e-05)
(-0.384544 0.0555034 -1.10447e-05)
(-0.410444 0.050009 -0.0297155)
(-0.450925 0.0650847 2.79641e-05)
(-0.358249 0.0517081 -4.66504e-06)
(-0.346593 0.0501121 -7.41512e-06)
(-0.466298 0.0569023 -0.033641)
(-0.445834 0.0643495 2.32855e-06)
(-0.329259 0.0475237 -1.9481e-05)
(-0.410965 -0.0393959 -0.039188)
(-0.481148 -0.0379159 -0.0581518)
(-0.365667 -0.0280871 -0.0431508)
(-0.365977 -0.0281787 -0.0433956)
(-0.385234 -0.0328896 -0.050503)
(-0.365184 -0.0281606 -0.0431788)
(-0.381696 -0.032346 -0.0494116)
(-0.365746 -0.0280203 -0.0430071)
(-0.365482 -0.0280311 -0.0430436)
(-0.365557 -0.0280243 -0.0430051)
(-0.364191 0.0525657 8.43149e-06)
(-0.364928 0.0526719 -4.69245e-06)
(-0.340897 0.0492003 7.89946e-06)
(-0.340881 0.0492048 7.48726e-06)
(-0.364406 0.0495189 -0.000792724)
(-0.386271 0.0535986 1.40685e-05)
(-0.394368 0.0635586 -4.25994e-05)
(-0.390792 0.0430504 0.00116887)
(-0.419675 0.0484846 -9.09851e-06)
(-0.349003 0.0402956 1.7207e-05)
(-0.352291 0.0406761 -1.1969e-05)
(-0.351471 0.0405896 -3.84447e-06)
(-0.451384 0.0626436 -1.55791e-05)
(-0.503839 0.0627212 1.62052e-06)
(-0.446394 0.0619352 -2.76674e-06)
(-0.498184 0.0616399 -0.00265733)
(-0.371027 -0.0108388 -0.0422256)
(-0.476021 -0.0452184 -0.035027)
(-0.296503 -0.0161256 -0.0223068)
(-0.366309 -0.0339005 -0.0250373)
(-0.365397 -0.033533 -0.024715)
(-0.366049 0.0487777 5.34947e-05)
(-0.374046 0.0498393 -8.98138e-06)
(-0.341082 0.0454897 -1.7808e-05)
(-0.284163 -0.0055022 -0.00203381)
(-0.279966 -0.00811944 -0.00294226)
(-0.271283 -0.00515876 -0.00188086)
(-0.419462 -0.0108786 -0.0504676)
(-0.286157 -0.00365605 -0.0331445)
(-0.425094 0.00306046 -0.0540722)
(-0.419467 -0.0330604 -0.0506944)
(-0.514063 -0.0390029 -0.0629359)
(-0.299831 0.00593798 -0.0380379)
(-0.345785 0.0056626 -0.0459447)
(-0.31999 0.00634103 -0.0405911)
(-0.302466 0.00599112 -0.0383651)
(-0.346513 0.00611915 -0.044105)
(-0.415973 0.00731201 -0.0529382)
(-0.355911 0.00704289 -0.0451417)
(-0.292697 0.00514852 -0.0372501)