/*--------------------------------*- C++ -*----------------------------------*\
  =========                 |
  \\      /  F ield         | OpenFOAM: The Open Source CFD Toolbox
   \\    /   O peration     | Website:  https://openfoam.org
    \\  /    A nd           | Version:  10
     \\/     M anipulation  |
\*---------------------------------------------------------------------------*/
FoamFile
{
    format      ascii;
    class       volScalarField;
    location    "0.1";
    object      k;
}
// * * * * * * * * * * * * * * * * * * * * * * * * * * * * * * * * * * * * * //

dimensions      [0 2 -2 0 0 0 0];

internalField   nonuniform List<scalar> 
116798
(
0.344978
0.248333
0.270271
0.220041
0.190835
0.180947
0.182998
0.192237
0.203494
0.213543
0.221072
0.225939
0.228639
0.229742
0.229289
0.227468
0.224605
0.221429
0.218654
0.216652
0.215493
0.215171
0.215634
0.216945
0.218975
0.221944
0.225071
0.229024
0.229336
0.21599
0.398637
0.465092
0.325935
0.247418
0.204129
0.185353
0.182271
0.186914
0.193242
0.197948
0.200142
0.200389
0.19916
0.196772
0.193254
0.189845
0.187179
0.185293
0.184067
0.183416
0.183281
0.183664
0.18449
0.185817
0.187387
0.189408
0.190862
0.192619
0.190039
0.18513
0.301186
0.438752
0.339273
0.262926
0.221846
0.20851
0.209083
0.212994
0.214252
0.211383
0.205494
0.198283
0.19108
0.184953
0.180182
0.176627
0.17402
0.172136
0.170848
0.170103
0.169834
0.170026
0.170549
0.171481
0.172461
0.173846
0.1744
0.175589
0.172364
0.171293
0.294725
0.429405
0.361989
0.286585
0.24982
0.237952
0.233577
0.227271
0.216777
0.204242
0.192621
0.183258
0.175933
0.170436
0.16634
0.163268
0.160972
0.159302
0.158145
0.157441
0.157085
0.157078
0.157282
0.157836
0.158309
0.159226
0.159195
0.160147
0.156379
0.157434
0.31514
0.418042
0.374147
0.30818
0.273151
0.254525
0.237662
0.218701
0.200876
0.186683
0.175981
0.16795
0.161973
0.157493
0.154092
0.151493
0.149511
0.148027
0.146946
0.146221
0.145763
0.1456
0.145572
0.145859
0.145978
0.146588
0.146179
0.147015
0.143512
0.145293
0.329699
0.385324
0.358342
0.307672
0.272452
0.244697
0.218678
0.197044
0.18098
0.169452
0.16098
0.15463
0.149866
0.146206
0.143367
0.14116
0.139447
0.138138
0.137149
0.136452
0.13596
0.135723
0.135556
0.135678
0.135561
0.135979
0.13534
0.13613
0.133032
0.135067
0.317803
0.32933
0.313126
0.276326
0.243809
0.215096
0.191872
0.174952
0.163037
0.154457
0.148024
0.143077
0.139295
0.136341
0.134021
0.132198
0.130766
0.129655
0.128784
0.128145
0.127648
0.127372
0.127106
0.127134
0.126861
0.127199
0.126408
0.127201
0.124711
0.126637
0.275195
0.266156
0.255898
0.229442
0.20485
0.183719
0.167776
0.156271
0.147968
0.141756
0.136968
0.133191
0.130207
0.127853
0.125976
0.124488
0.123308
0.122381
0.121633
0.121068
0.120595
0.12032
0.120008
0.120003
0.119634
0.119952
0.119062
0.119873
0.118071
0.119719
0.218742
0.212702
0.204762
0.186547
0.171643
0.158643
0.148744
0.141228
0.135551
0.131123
0.12761
0.124767
0.122445
0.120596
0.119101
0.117909
0.116957
0.116202
0.115573
0.115091
0.11466
0.114409
0.114082
0.114073
0.11366
0.113975
0.11306
0.11386
0.112806
0.114054
0.171076
0.173365
0.165822
0.155495
0.147763
0.14015
0.13415
0.129281
0.12544
0.122322
0.119781
0.117671
0.115897
0.114455
0.113278
0.112336
0.11158
0.110977
0.110459
0.110059
0.109678
0.109464
0.109144
0.109151
0.108721
0.109048
0.108153
0.108922
0.108629
0.109412
0.140192
0.146202
0.139402
0.135309
0.131094
0.126668
0.123007
0.119872
0.117286
0.115115
0.113294
0.111748
0.110415
0.109296
0.10838
0.107647
0.107056
0.106583
0.106163
0.10584
0.105511
0.105341
0.105039
0.105068
0.104643
0.104981
0.104145
0.104862
0.105312
0.105605
0.121696
0.128499
0.123053
0.122196
0.11928
0.11681
0.1145
0.112508
0.11076
0.109266
0.107965
0.106846
0.105855
0.104993
0.104287
0.103723
0.103269
0.102904
0.10257
0.102316
0.102037
0.101908
0.101632
0.101686
0.101281
0.101623
0.100876
0.101521
0.102667
0.102475
0.11026
0.117274
0.112983
0.113233
0.110783
0.109548
0.107992
0.106765
0.105564
0.104551
0.103621
0.102817
0.102083
0.101428
0.100886
0.100458
0.100114
0.0998376
0.0995749
0.0993798
0.0991476
0.0990558
0.0988079
0.0988849
0.0985101
0.0988479
0.0982082
0.0987584
0.100543
0.0998963
0.102784
0.109898
0.106645
0.106829
0.10461
0.104144
0.102998
0.102286
0.10144
0.100768
0.100099
0.0995264
0.0989818
0.0984903
0.0980745
0.0977534
0.0974944
0.0972888
0.0970844
0.0969382
0.096746
0.096688
0.0964705
0.0965677
0.0962293
0.0965521
0.0960352
0.096466
0.0988433
0.0977684
0.0976435
0.104812
0.102501
0.102126
0.100082
0.100076
0.0991545
0.0987894
0.098169
0.0977401
0.0972526
0.0968494
0.0964435
0.0960771
0.0957568
0.0955176
0.095325
0.0951741
0.0950167
0.0949101
0.094754
0.0947254
0.0945393
0.0946515
0.0943518
0.0946512
0.0942696
0.0945681
0.0974869
0.0960127
0.0939652
0.101154
0.0996177
0.0985982
0.0967277
0.0969783
0.0961876
0.0960511
0.0955743
0.0953142
0.0949535
0.0946747
0.0943713
0.0941006
0.0938525
0.0936759
0.0935341
0.0934256
0.0933064
0.0932325
0.0931088
0.0931041
0.0929469
0.0930634
0.0928082
0.0930773
0.0928412
0.0929974
0.0964044
0.0945644
0.0912579
0.0984364
0.0974976
0.0959125
0.0942299
0.0945968
0.0938912
0.0939016
0.0935142
0.0933713
0.0930974
0.0929087
0.0926811
0.0924843
0.0922925
0.0921643
0.0920617
0.0919862
0.0918984
0.0918499
0.091755
0.0917653
0.0916346
0.0917473
0.0915414
0.0917736
0.0916905
0.0916977
0.0955393
0.0933696
0.0892346
0.0963729
0.0958901
0.0938489
0.0923702
0.0927499
0.0921109
0.0922058
0.09188
0.0918148
0.091602
0.0914786
0.0913067
0.0911656
0.0910184
0.0909273
0.0908552
0.0908047
0.090742
0.0907131
0.0906404
0.0906598
0.0905519
0.0906583
0.0905055
0.0906944
0.0907699
0.0906234
0.0948474
0.0923835
0.0877077
0.0947822
0.0946594
0.0922498
0.0909938
0.0913071
0.0907284
0.0908644
0.0905823
0.0905713
0.0904011
0.0903239
0.0901928
0.0900934
0.0899815
0.0899179
0.0898687
0.0898366
0.0897935
0.0897777
0.0897233
0.0897441
0.0896628
0.0897581
0.089661
0.0898012
0.0900386
0.0897361
0.0942937
0.0915689
0.0865476
0.0935448
0.0937072
0.0910005
0.0899704
0.0901725
0.0896553
0.0897995
0.0895537
0.0895748
0.0894369
0.0893933
0.0892928
0.0892237
0.0891388
0.0890957
0.0890632
0.0890434
0.0890148
0.0890056
0.0889678
0.08899
0.0889349
0.0890148
0.088975
0.0890628
0.0894625
0.0890039
0.0938522
0.0908947
0.0856501
0.0925753
0.0929575
0.0900179
0.0892074
0.0892756
0.0888252
0.0889534
0.0887384
0.0887766
0.0886626
0.0886416
0.0885635
0.0885164
0.0884527
0.0884244
0.0884039
0.0883923
0.0883756
0.0883722
0.0883499
0.0883698
0.0883401
0.0884004
0.0884205
0.0884529
0.0890142
0.0883998
0.0934997
0.0903371
0.0849503
0.0918114
0.0923638
0.0892409
0.0886391
0.0885634
0.0881836
0.0882802
0.0880945
0.0881371
0.0880423
0.088035
0.0879738
0.0879426
0.0878956
0.0878776
0.0878666
0.0878606
0.0878542
0.0878533
0.0878455
0.0878594
0.0878547
0.087894
0.0879747
0.0879494
0.0886693
0.0879024
0.0932205
0.0898766
0.0844024
0.0912059
0.091898
0.0886238
0.0882183
0.0879951
0.0876879
0.087744
0.0875879
0.0876258
0.0875473
0.087547
0.0874993
0.087479
0.0874452
0.0874343
0.0874308
0.0874283
0.0874302
0.0874288
0.0874336
0.0874397
0.0874603
0.0874769
0.0876187
0.0875341
0.0884078
0.0874933
0.0930002
0.0894968
0.083972
0.0907234
0.0915308
0.0881317
0.0879099
0.0875405
0.0873052
0.0873158
0.0871895
0.0872169
0.0871541
0.0871555
0.087119
0.0871056
0.0870821
0.0870757
0.0870778
0.0870765
0.0870849
0.0870813
0.0870985
0.0870954
0.0871413
0.0871343
0.0873364
0.0871916
0.0882132
0.0871576
0.0928274
0.0891835
0.0836329
0.090337
0.0912417
0.0877382
0.0876866
0.0871765
0.0870107
0.0869731
0.0868767
0.0868904
0.0868419
0.0868418
0.0868152
0.0868052
0.0867898
0.0867857
0.086792
0.0867906
0.0868051
0.0867981
0.0868269
0.0868137
0.0868852
0.0868536
0.0871149
0.0869089
0.0880714
0.0868821
0.0926931
0.0889254
0.0833649
0.0900268
0.0910145
0.0874226
0.0875269
0.0868849
0.086786
0.0866976
0.0866313
0.0866294
0.0865952
0.0865914
0.0865731
0.0865644
0.0865553
0.0865522
0.0865618
0.0865593
0.086579
0.0865677
0.0866079
0.0865842
0.0866815
0.0866236
0.0869418
0.0866757
0.0879707
0.0866566
0.0925899
0.0887128
0.083153
0.0897778
0.0908376
0.0871693
0.087417
0.0866514
0.0866166
0.0864764
0.0864392
0.08642
0.0864002
0.0863916
0.086381
0.0863722
0.086368
0.0863648
0.086377
0.0863725
0.0863972
0.0863813
0.086433
0.0863981
0.0865201
0.0864348
0.0868073
0.0864836
0.0879003
0.0864724
0.0925121
0.088538
0.0829849
0.0895765
0.0907004
0.0869658
0.0873469
0.0864643
0.0864881
0.0862989
0.0862881
0.0862511
0.0862446
0.0862307
0.0862271
0.0862175
0.0862176
0.0862136
0.0862282
0.0862216
0.0862511
0.0862304
0.0862929
0.086246
0.0863915
0.086279
0.0867023
0.0863238
0.0878554
0.0863233
0.0924544
0.0883943
0.0828509
0.0894127
0.0905938
0.0868009
0.0872983
0.0863144
0.0863906
0.0861558
0.0861695
0.0861143
0.0861198
0.0861003
0.0861029
0.0860924
0.086096
0.0860915
0.0861081
0.0860996
0.0861335
0.0861075
0.08618
0.0861211
0.0862887
0.0861499
0.0866208
0.0861911
0.0878295
0.0862023
0.0924134
0.0882763
0.0827439
0.0892784
0.0905116
0.0866637
0.0872426
0.0861924
0.0863192
0.0860397
0.0860779
0.0860035
0.0860206
0.0859945
0.0860033
0.0859912
0.0859982
0.0859928
0.0860115
0.0860004
0.0860385
0.0860069
0.0860894
0.0860175
0.0862067
0.0860424
0.0865592
0.0860801
0.0878076
0.0861039
0.0923857
0.0881794
0.0826589
0.0891679
0.0904462
0.0865489
0.0871989
0.0860924
0.0862682
0.0859451
0.0860079
0.0859141
0.0859433
0.0859096
0.0859243
0.0859101
0.0859201
0.0859136
0.0859343
0.0859205
0.085963
0.0859248
0.0860168
0.0859314
0.0861424
0.0859526
0.0865146
0.0859876
0.0877898
0.0860241
0.0923688
0.0880997
0.0825914
0.0890769
0.0903942
0.0864543
0.0871658
0.0860101
0.0862331
0.0858685
0.0859548
0.0858421
0.0858832
0.0858419
0.0858623
0.0858456
0.0858585
0.0858504
0.0858729
0.0858559
0.0859023
0.0858573
0.0859586
0.0858602
0.0860924
0.0858779
0.0864833
0.0859103
0.0877793
0.0859597
0.0923602
0.0880342
0.082536
0.0890021
0.0903535
0.0863769
0.0871401
0.0859424
0.0862101
0.0858064
0.0859149
0.085784
0.0858362
0.0857874
0.0858134
0.0857941
0.0858095
0.0857996
0.0858238
0.0858034
0.0858535
0.0858018
0.0859122
0.0858014
0.0860539
0.0858161
0.0864626
0.0858456
0.087774
0.0859079
0.0923578
0.0879803
0.0824905
0.0889402
0.0903163
0.0863126
0.0871207
0.0858871
0.0861968
0.0857559
0.0858855
0.0857369
0.0858001
0.0857436
0.0857748
0.0857525
0.0857704
0.0857583
0.0857843
0.0857605
0.0858145
0.0857562
0.0858757
0.0857527
0.0860251
0.085765
0.0864508
0.0857918
0.0877735
0.0858663
0.0923603
0.087936
0.082454
0.0888889
0.0902854
0.0862595
0.0871068
0.085842
0.0861897
0.0857151
0.085864
0.0856987
0.085772
0.0857082
0.0857445
0.0857191
0.0857394
0.0857252
0.0857529
0.0857256
0.0857834
0.0857187
0.0858466
0.0857126
0.0860036
0.0857228
0.0864443
0.0857471
0.0877746
0.0858328
0.0923664
0.0878997
0.0824247
0.0888462
0.0902594
0.0862155
0.0870979
0.0858053
0.0861882
0.0856817
0.0858494
0.0856675
0.0857507
0.0856794
0.0857208
0.0856921
0.0857149
0.0856983
0.0857278
0.0856969
0.0857586
0.0856876
0.0858243
0.0856792
0.0859886
0.0856879
0.0864427
0.0857102
0.0877784
0.0858058
0.092375
0.0878699
0.0824012
0.0888105
0.0902384
0.086179
0.087093
0.0857757
0.08619
0.0856548
0.0858394
0.0856421
0.0857344
0.0856559
0.0857022
0.0856702
0.0856954
0.0856764
0.0857078
0.0856735
0.085739
0.0856621
0.0858067
0.0856515
0.0859777
0.0856589
0.0864439
0.0856795
0.0877845
0.0857843
0.0923856
0.0878454
0.0823822
0.0887807
0.0902221
0.0861486
0.0870916
0.0857516
0.0861951
0.0856329
0.0858338
0.0856212
0.0857224
0.0856366
0.0856876
0.0856522
0.0856799
0.0856584
0.0856919
0.085654
0.0857234
0.0856405
0.0857934
0.0856281
0.0859712
0.0856344
0.0864501
0.0856538
0.0877925
0.085767
0.092397
0.0878253
0.0823669
0.0887556
0.0902092
0.0861233
0.0870933
0.085731
0.0861995
0.0856153
0.0858312
0.085604
0.0857132
0.0856205
0.0856762
0.0856372
0.0856675
0.0856435
0.085679
0.0856377
0.085711
0.0856226
0.0857829
0.0856085
0.0859674
0.0856134
0.0864626
0.0856327
0.0878034
0.0857533
0.0924094
0.0878088
0.0823546
0.0887344
0.0901987
0.086102
0.0870976
0.0857126
0.0862028
0.085601
0.0858317
0.0855896
0.0857067
0.0856069
0.085667
0.0856244
0.0856575
0.0856308
0.0856686
0.0856236
0.0857009
0.0856071
0.0857753
0.0855919
0.0859669
0.0855956
0.0864715
0.0856152
0.0878157
0.0857425
0.092422
0.0877952
0.0823446
0.0887164
0.0901906
0.086084
0.0871037
0.0856972
0.0862059
0.0855893
0.0858339
0.0855776
0.0857018
0.0855953
0.0856598
0.0856135
0.0856494
0.0856199
0.0856601
0.0856117
0.0856931
0.0855941
0.0857695
0.0855779
0.0859682
0.0855804
0.0864758
0.0856009
0.0878278
0.085734
0.0924349
0.0877841
0.0823366
0.0887012
0.0901846
0.0860689
0.0871112
0.0856844
0.08621
0.0855798
0.0858376
0.0855675
0.0856986
0.0855854
0.0856542
0.085604
0.0856428
0.0856104
0.0856532
0.0856013
0.0856868
0.0855827
0.0857656
0.0855659
0.0859713
0.0855677
0.0864797
0.0855893
0.0878401
0.0857273
0.0924476
0.087775
0.0823302
0.0886882
0.0901801
0.0860561
0.0871196
0.0856739
0.0862149
0.0855721
0.0858421
0.0855589
0.0856965
0.0855768
0.0856497
0.0855957
0.0856375
0.0856021
0.0856476
0.0855923
0.0856819
0.085573
0.0857629
0.0855558
0.0859754
0.0855573
0.0864837
0.0855799
0.0878521
0.085722
0.0924602
0.0877675
0.0823251
0.0886771
0.0901768
0.0860454
0.0871284
0.0856651
0.0862204
0.0855659
0.0858473
0.0855517
0.0856954
0.0855693
0.0856463
0.0855883
0.0856331
0.0855945
0.085643
0.0855842
0.0856779
0.0855644
0.0857613
0.0855471
0.0859802
0.0855487
0.0864885
0.085572
0.0878639
0.085718
0.0924724
0.0877613
0.082321
0.0886676
0.0901746
0.0860363
0.0871366
0.0856576
0.0862262
0.085561
0.0858528
0.0855456
0.0856951
0.0855627
0.0856435
0.0855816
0.0856294
0.0855876
0.0856391
0.0855769
0.0856747
0.0855568
0.0857605
0.0855397
0.0859854
0.0855416
0.0864945
0.0855653
0.0878751
0.0857148
0.0924841
0.0877563
0.0823177
0.0886596
0.0901733
0.0860286
0.0871449
0.0856511
0.086232
0.0855567
0.0858604
0.0855407
0.0856956
0.0855569
0.0856414
0.0855754
0.0856263
0.0855813
0.0856359
0.0855702
0.0856723
0.0855501
0.0857607
0.0855332
0.0859937
0.0855358
0.0865014
0.0855596
0.0878858
0.0857124
0.0924952
0.0877522
0.0823151
0.0886526
0.0901728
0.0860221
0.0871533
0.0856456
0.0862383
0.0855528
0.0858667
0.0855367
0.0856969
0.0855518
0.0856399
0.0855699
0.0856239
0.0855755
0.0856333
0.0855643
0.0856706
0.0855443
0.0857615
0.0855274
0.0860031
0.085531
0.0865088
0.0855549
0.087896
0.0857105
0.0925057
0.0877488
0.082313
0.0886467
0.0901729
0.0860165
0.0871614
0.0856407
0.0862448
0.0855494
0.0858719
0.0855332
0.0856985
0.0855473
0.085639
0.0855649
0.0856221
0.0855703
0.0856314
0.085559
0.0856695
0.0855391
0.0857628
0.0855224
0.0860093
0.0855271
0.086516
0.0855509
0.0879056
0.0857091
0.0925155
0.087746
0.0823114
0.0886415
0.0901734
0.0860117
0.0871687
0.0856366
0.0862514
0.0855466
0.0858768
0.0855302
0.0857003
0.0855432
0.0856384
0.0855603
0.0856206
0.0855654
0.0856298
0.0855541
0.0856687
0.0855344
0.0857644
0.0855181
0.0860135
0.085524
0.0865232
0.0855476
0.0879146
0.0857081
0.0925247
0.0877437
0.0823101
0.0886371
0.0901741
0.0860076
0.0871754
0.085633
0.0862581
0.0855442
0.085882
0.0855277
0.0857021
0.0855395
0.0856379
0.0855559
0.0856194
0.0855608
0.0856285
0.0855496
0.0856683
0.0855303
0.0857664
0.0855146
0.0860182
0.0855215
0.0865304
0.0855447
0.087923
0.0857073
0.0925332
0.0877418
0.0823091
0.0886332
0.0901751
0.0860041
0.0871815
0.08563
0.0862647
0.0855423
0.0858874
0.0855255
0.0857042
0.0855362
0.0856379
0.085552
0.0856184
0.0855566
0.0856275
0.0855455
0.0856682
0.0855268
0.0857686
0.0855116
0.0860232
0.0855195
0.0865372
0.0855424
0.0879308
0.0857067
0.092541
0.0877402
0.0823083
0.0886299
0.0901761
0.086001
0.0871871
0.0856274
0.0862713
0.0855408
0.0858929
0.0855237
0.0857077
0.0855335
0.0856382
0.0855484
0.0856179
0.0855527
0.085627
0.0855418
0.0856686
0.0855237
0.0857722
0.0855091
0.0860285
0.0855179
0.0865437
0.0855403
0.0879379
0.0857064
0.0925482
0.0877389
0.0823077
0.0886269
0.0901771
0.0859984
0.0871922
0.0856251
0.0862777
0.0855396
0.0858986
0.0855219
0.0857114
0.0855311
0.0856389
0.0855451
0.0856176
0.0855492
0.0856267
0.0855386
0.0856693
0.085521
0.0857767
0.0855071
0.0860336
0.0855167
0.0865497
0.0855386
0.0879445
0.0857061
0.0925547
0.0877378
0.0823073
0.0886244
0.0901781
0.0859961
0.0871966
0.0856232
0.0862839
0.0855386
0.0859043
0.0855204
0.0857142
0.085529
0.0856397
0.0855422
0.0856177
0.085546
0.0856268
0.0855357
0.0856703
0.0855185
0.0857804
0.0855054
0.0860388
0.0855157
0.0865554
0.0855371
0.0879506
0.085706
0.0925607
0.0877368
0.0823069
0.0886222
0.0901791
0.0859941
0.0872006
0.0856215
0.0862897
0.0855379
0.0859099
0.085519
0.0857171
0.0855272
0.0856407
0.0855395
0.0856179
0.0855431
0.0856271
0.085533
0.0856713
0.0855164
0.0857833
0.085504
0.0860438
0.0855149
0.0865606
0.0855358
0.087956
0.085706
0.0925661
0.087736
0.0823067
0.0886204
0.0901799
0.0859924
0.087204
0.0856201
0.0862948
0.0855372
0.0859153
0.0855178
0.0857201
0.0855256
0.0856418
0.0855371
0.0856183
0.0855404
0.0856275
0.0855307
0.0856726
0.0855145
0.0857864
0.0855028
0.0860486
0.0855143
0.0865654
0.0855347
0.087961
0.085706
0.092571
0.0877354
0.0823065
0.0886188
0.0901806
0.0859909
0.087207
0.0856188
0.0862996
0.0855366
0.0859203
0.0855168
0.0857231
0.0855242
0.0856436
0.0855351
0.0856189
0.0855381
0.0856281
0.0855286
0.0856744
0.0855129
0.0857895
0.0855019
0.0860531
0.0855139
0.0865697
0.0855338
0.0879653
0.085706
0.0925754
0.0877348
0.0823063
0.0886174
0.0901811
0.0859896
0.0872095
0.0856177
0.0863038
0.0855361
0.085925
0.0855159
0.0857259
0.0855229
0.0856457
0.0855333
0.0856195
0.085536
0.0856288
0.0855268
0.0856766
0.0855116
0.0857925
0.085501
0.0860573
0.0855135
0.0865736
0.085533
0.0879692
0.0857061
0.0925793
0.0877344
0.0823063
0.0886162
0.0901815
0.0859884
0.0872115
0.0856168
0.0863076
0.0855357
0.0859292
0.0855151
0.0857287
0.0855217
0.0856476
0.0855317
0.0856203
0.0855341
0.0856295
0.0855251
0.0856788
0.0855104
0.0857953
0.0855004
0.0860608
0.0855132
0.0865768
0.0855322
0.0879725
0.0857062
0.0925826
0.087734
0.0823062
0.0886151
0.0901817
0.0859874
0.087213
0.085616
0.0863107
0.0855353
0.0859329
0.0855145
0.0857312
0.0855207
0.0856493
0.0855303
0.0856213
0.0855325
0.0856305
0.0855237
0.0856806
0.0855094
0.0857979
0.0854998
0.086064
0.0855129
0.0865795
0.0855316
0.0879753
0.0857062
0.0925856
0.0877336
0.0823061
0.0886142
0.0901815
0.0859864
0.0872139
0.0856152
0.0863131
0.0855349
0.085936
0.0855139
0.0857335
0.0855198
0.0856508
0.0855291
0.0856225
0.0855311
0.0856317
0.0855225
0.0856822
0.0855086
0.0858001
0.0854993
0.0860664
0.0855126
0.0865817
0.0855311
0.0879775
0.0857063
0.092588
0.0877333
0.0823061
0.0886135
0.090181
0.0859855
0.0872142
0.0856146
0.0863146
0.0855345
0.0859383
0.0855133
0.0857353
0.085519
0.0856521
0.0855281
0.0856236
0.0855299
0.0856329
0.0855215
0.0856836
0.0855078
0.0858019
0.0854988
0.0860683
0.0855124
0.0865833
0.0855306
0.0879791
0.0857064
0.09259
0.087733
0.0823061
0.0886129
0.09018
0.0859847
0.0872136
0.085614
0.0863152
0.085534
0.0859398
0.0855129
0.0857365
0.0855183
0.085653
0.0855272
0.0856245
0.0855289
0.0856338
0.0855206
0.0856845
0.0855072
0.0858031
0.0854984
0.0860694
0.0855121
0.0865841
0.0855302
0.08798
0.0857064
0.0925915
0.0877328
0.082306
0.0886124
0.0901784
0.0859839
0.0872122
0.0856134
0.0863148
0.0855335
0.0859403
0.0855124
0.0857371
0.0855176
0.0856536
0.0855265
0.085625
0.0855281
0.0856343
0.0855199
0.0856851
0.0855067
0.0858036
0.0854981
0.0860697
0.0855117
0.0865843
0.0855298
0.0879802
0.0857065
0.0925925
0.0877326
0.082306
0.0886121
0.0901761
0.0859831
0.0872097
0.0856129
0.0863132
0.0855329
0.0859396
0.0855119
0.0857369
0.0855171
0.0856534
0.0855259
0.0856249
0.0855275
0.0856342
0.0855193
0.085685
0.0855062
0.0858034
0.0854977
0.086069
0.0855113
0.0865834
0.0855295
0.0879795
0.0857065
0.092593
0.0877323
0.082306
0.0886119
0.0901728
0.0859822
0.087206
0.0856123
0.0863103
0.0855321
0.0859376
0.0855115
0.0857359
0.0855167
0.0856529
0.0855255
0.0856245
0.0855271
0.0856338
0.0855189
0.0856843
0.0855058
0.0858022
0.0854973
0.0860671
0.0855108
0.0865817
0.0855292
0.087978
0.0857064
0.092593
0.0877321
0.082306
0.0886119
0.0901687
0.0859813
0.087201
0.0856118
0.086306
0.0855312
0.085934
0.085511
0.0857337
0.0855164
0.0856514
0.0855252
0.0856233
0.0855268
0.0856325
0.0855186
0.0856827
0.0855055
0.0858
0.0854969
0.0860639
0.0855101
0.0865787
0.0855289
0.0879752
0.0857063
0.0925921
0.0877318
0.0823059
0.088612
0.0901633
0.0859803
0.0871941
0.0856112
0.0862999
0.0855301
0.0859289
0.0855104
0.0857307
0.0855162
0.0856495
0.0855251
0.0856218
0.0855267
0.0856308
0.0855185
0.0856804
0.0855053
0.0857966
0.0854964
0.0860592
0.0855093
0.0865746
0.0855287
0.0879715
0.0857062
0.0925908
0.0877315
0.0823059
0.0886124
0.0901568
0.0859792
0.0871859
0.0856105
0.0862927
0.0855289
0.085922
0.0855099
0.0857262
0.0855162
0.0856463
0.0855253
0.0856192
0.0855269
0.0856282
0.0855185
0.0856772
0.0855051
0.0857922
0.0854958
0.0860531
0.0855084
0.086569
0.0855284
0.0879663
0.085706
0.0925885
0.0877312
0.0823059
0.0886129
0.0901487
0.085978
0.0871749
0.0856098
0.0862824
0.0855274
0.0859128
0.0855094
0.0857211
0.0855162
0.0856432
0.0855256
0.0856166
0.0855272
0.0856252
0.0855188
0.0856732
0.0855051
0.0857865
0.0854953
0.0860453
0.0855072
0.0865623
0.0855282
0.0879604
0.0857057
0.0925857
0.0877309
0.0823061
0.0886136
0.09014
0.0859769
0.0871642
0.0856092
0.0862732
0.085526
0.0859032
0.0855091
0.0857148
0.0855165
0.0856388
0.0855262
0.085613
0.0855279
0.0856216
0.0855192
0.0856686
0.0855051
0.08578
0.0854948
0.0860364
0.085506
0.0865539
0.0855281
0.0879526
0.0857055
0.0925821
0.0877306
0.0823062
0.0886145
0.0901296
0.0859756
0.0871491
0.0856084
0.0862582
0.0855242
0.0858894
0.0855086
0.0857075
0.085517
0.0856345
0.085527
0.0856095
0.0855288
0.0856175
0.08552
0.0856633
0.0855054
0.0857726
0.0854943
0.0860262
0.0855047
0.0865458
0.085528
0.0879457
0.0857053
0.0925787
0.0877303
0.0823064
0.0886155
0.0901206
0.0859746
0.0871383
0.0856079
0.08625
0.0855231
0.0858801
0.0855085
0.0857012
0.0855176
0.08563
0.085528
0.0856057
0.0855298
0.0856136
0.0855207
0.0856581
0.0855057
0.0857647
0.0854939
0.0860146
0.0855034
0.0865353
0.085528
0.0879362
0.085705
0.0925742
0.08773
0.0856072
0.0862313
0.0855212
0.0858628
0.0855084
0.0856919
0.0855188
0.0856246
0.0855296
0.0856014
0.0855316
0.0856085
0.0855222
0.0856522
0.0855063
0.0857582
0.0854937
0.0860055
0.0855024
0.0865286
0.0855281
0.0879306
0.0857047
0.0925709
0.0877298
0.08623
0.085521
0.0858594
0.0855086
0.0856889
0.0855192
0.0856222
0.0855305
0.0855991
0.0855325
0.085606
0.0855229
0.0856476
0.085507
0.0857498
0.0854936
0.0859937
0.0855013
0.0865182
0.0855284
0.0879214
0.0857045
0.0925664
0.0877297
0.0858412
0.0855091
0.0856782
0.0855214
0.0856158
0.085533
0.0855947
0.0855354
0.085601
0.0855253
0.0856425
0.0855078
0.0857476
0.0854936
0.0859922
0.0855013
0.0865174
0.0855287
0.0879201
0.0857043
0.0925641
0.0877298
0.0855361
0.0856006
0.085526
0.0856392
0.085509
0.0857402
0.0854941
0.0859832
0.085501
0.0865101
0.0855293
0.0879138
0.0857042
0.0925603
0.0877299
0.0855982
0.0855283
0.0856371
0.0855099
0.0857406
0.0854945
0.0859873
0.085502
0.0865148
0.0855299
0.0879169
0.0857041
0.0925591
0.0877303
0.0855312
0.085634
0.0855116
0.0857373
0.0854953
0.0859844
0.0855026
0.0865113
0.0855308
0.087913
0.0857041
0.0925556
0.0877307
0.0856352
0.0855128
0.0857384
0.0854965
0.0859876
0.0855039
0.0865155
0.0855315
0.0879163
0.085704
0.0925541
0.0877314
0.0854976
0.0859851
0.0855047
0.0865122
0.0855326
0.0879124
0.0857039
0.0925498
0.0877319
0.266364
0.197886
0.240899
0.212522
0.175142
0.1509
0.13387
0.122283
0.114447
0.109213
0.105923
0.104128
0.10343
0.103523
0.104129
0.105114
0.106292
0.107429
0.10845
0.109432
0.110508
0.111762
0.113266
0.115026
0.117145
0.119532
0.122556
0.125438
0.129256
0.13705
0.534484
0.219246
0.253981
0.225163
0.187017
0.155847
0.134326
0.120994
0.113239
0.109028
0.107035
0.106273
0.106089
0.106142
0.106257
0.106361
0.106451
0.106576
0.106787
0.107143
0.107658
0.108361
0.109243
0.11031
0.111644
0.112944
0.114939
0.115296
0.118158
0.112672
0.482367
0.209552
0.252994
0.218014
0.176934
0.146584
0.127855
0.117218
0.111396
0.108386
0.107005
0.106458
0.106241
0.106134
0.106078
0.106083
0.106167
0.106343
0.106611
0.106977
0.107439
0.108
0.108688
0.10943
0.11042
0.111105
0.112514
0.112141
0.11484
0.107765
0.460113
0.209049
0.248513
0.205414
0.163724
0.136989
0.122158
0.114337
0.110429
0.108603
0.107726
0.107185
0.106771
0.106442
0.106201
0.10605
0.105988
0.106019
0.106142
0.106359
0.106667
0.107055
0.107552
0.108045
0.108769
0.109033
0.110057
0.109092
0.111784
0.107349
0.459014
0.218581
0.236438
0.187259
0.150163
0.129101
0.118342
0.11297
0.110293
0.108806
0.107813
0.107062
0.106484
0.106052
0.10575
0.105564
0.105481
0.105493
0.105588
0.105758
0.106001
0.106293
0.106685
0.107014
0.107602
0.107614
0.108536
0.107564
0.110645
0.10598
0.461737
0.225308
0.212257
0.166747
0.138208
0.123283
0.115926
0.112149
0.109998
0.108554
0.107496
0.106698
0.106101
0.105663
0.105352
0.105147
0.10503
0.104992
0.105026
0.105123
0.105288
0.105484
0.105779
0.105969
0.106446
0.106255
0.107097
0.106153
0.109477
0.105096
0.44649
0.210609
0.181274
0.147472
0.128642
0.119032
0.114107
0.11122
0.109314
0.107921
0.106888
0.10611
0.105535
0.105109
0.104803
0.104595
0.10447
0.104416
0.104426
0.104485
0.104605
0.104734
0.104968
0.105055
0.105476
0.105141
0.106017
0.10518
0.10874
0.104017
0.389805
0.178394
0.152718
0.132419
0.12161
0.115679
0.112255
0.109933
0.108292
0.107057
0.10614
0.105444
0.104927
0.104537
0.10425
0.104046
0.103911
0.103836
0.103815
0.103835
0.103912
0.103982
0.104166
0.10417
0.104548
0.104102
0.105049
0.104318
0.10807
0.102992
0.29401
0.147693
0.132456
0.122351
0.116506
0.112749
0.110306
0.108478
0.107146
0.106111
0.105333
0.104726
0.104266
0.103912
0.103646
0.103451
0.103316
0.103233
0.103198
0.103194
0.103244
0.10327
0.103425
0.103365
0.103723
0.103206
0.104279
0.103649
0.107545
0.101893
0.20462
0.127886
0.120383
0.115968
0.112591
0.110152
0.108419
0.107027
0.105988
0.105146
0.104504
0.103988
0.103589
0.103277
0.103037
0.102854
0.102722
0.102633
0.102587
0.102562
0.102591
0.102584
0.102716
0.102604
0.102951
0.102406
0.103611
0.103079
0.107076
0.100949
0.153502
0.117521
0.113437
0.111729
0.109486
0.107935
0.106707
0.105677
0.10488
0.104204
0.10368
0.103245
0.102903
0.102629
0.102414
0.102247
0.102124
0.102036
0.101985
0.101947
0.101965
0.101932
0.102052
0.101897
0.102245
0.101717
0.10304
0.102603
0.106651
0.100141
0.129416
0.112189
0.109207
0.108764
0.107035
0.10609
0.105195
0.104447
0.103837
0.103301
0.102879
0.102517
0.102229
0.101993
0.101806
0.101658
0.101544
0.101458
0.101404
0.101356
0.101365
0.101309
0.101423
0.101225
0.101588
0.101099
0.10253
0.102153
0.106262
0.0994971
0.116501
0.109197
0.106499
0.106642
0.105115
0.10457
0.10387
0.103338
0.102871
0.102452
0.102116
0.101818
0.10158
0.101378
0.101216
0.101083
0.100976
0.10089
0.100833
0.100776
0.10078
0.1007
0.100818
0.100567
0.100981
0.100507
0.102072
0.101771
0.105904
0.0989827
0.108408
0.107354
0.104709
0.105095
0.103601
0.103313
0.10272
0.102346
0.10198
0.101658
0.101392
0.101148
0.100951
0.100774
0.100624
0.10049
0.100378
0.100284
0.10022
0.100149
0.100155
0.100044
0.100189
0.0998465
0.100394
0.0998331
0.101651
0.101459
0.105572
0.098589
0.102902
0.106104
0.103471
0.103951
0.102379
0.102264
0.101705
0.101452
0.101145
0.100884
0.100654
0.100428
0.100233
0.100045
0.0998835
0.0997383
0.0996173
0.0995114
0.0994405
0.0993488
0.0993641
0.0992105
0.0994329
0.0990175
0.0997574
0.099204
0.101279
0.101214
0.105272
0.0982912
0.0989805
0.105186
0.102562
0.103103
0.101325
0.101364
0.100762
0.100592
0.10029
0.100058
0.099836
0.0996182
0.0994302
0.0992433
0.0990865
0.0989446
0.0988326
0.0987353
0.0986747
0.098588
0.0986092
0.0984606
0.0986839
0.0983024
0.0991164
0.0986668
0.100959
0.101022
0.104999
0.0980694
0.0961016
0.104475
0.101878
0.102473
0.100366
0.100566
0.0998406
0.099738
0.0994161
0.099206
0.0989995
0.0987951
0.0986265
0.0984641
0.0983389
0.0982287
0.0981417
0.0980642
0.0980168
0.0979435
0.0979698
0.0978309
0.098059
0.0977069
0.0985336
0.0982258
0.100662
0.100873
0.104748
0.0979025
0.0939447
0.103898
0.101367
0.101993
0.0994832
0.0997887
0.0989176
0.0988876
0.0985689
0.0983914
0.0982083
0.0980472
0.0979248
0.0978036
0.0977105
0.0976264
0.0975601
0.0974987
0.0974633
0.0973964
0.0974323
0.0973119
0.0975267
0.0972171
0.0980404
0.097874
0.100384
0.100755
0.104508
0.0977889
0.0923041
0.103419
0.100961
0.101615
0.0986922
0.0990358
0.0980636
0.098094
0.0978105
0.097706
0.0975622
0.0974418
0.0973476
0.0972536
0.0971834
0.0971194
0.0970694
0.0970213
0.0970001
0.0969464
0.0969926
0.0968736
0.0970744
0.0968228
0.0976295
0.0976016
0.100135
0.100664
0.104279
0.097718
0.0910428
0.102932
0.100581
0.101307
0.0980712
0.0983856
0.0973935
0.0974546
0.0971979
0.0971385
0.0970361
0.0969508
0.0968799
0.0968077
0.0967544
0.0967053
0.0966687
0.0966323
0.0966194
0.0965762
0.0966138
0.096502
0.0966996
0.096503
0.0972901
0.0973925
0.0999138
0.100594
0.104064
0.097688
0.090065
0.102501
0.100291
0.101057
0.097604
0.097879
0.0968838
0.0969556
0.0967124
0.0966847
0.0966002
0.0965417
0.0964942
0.0964434
0.0964042
0.0963669
0.0963406
0.0963112
0.0962997
0.0962567
0.0962986
0.0961982
0.0963947
0.096246
0.0970083
0.0972345
0.09972
0.100538
0.103864
0.0976833
0.0893016
0.102135
0.100072
0.100846
0.0972535
0.0974811
0.0964917
0.0965613
0.0963298
0.0963218
0.0962512
0.0962114
0.0961757
0.0961367
0.0961087
0.0960812
0.0960607
0.0960377
0.0960324
0.0959961
0.0960379
0.0959499
0.0961452
0.0960396
0.0967751
0.0971182
0.0995522
0.100495
0.10368
0.0976907
0.088702
0.101829
0.0999077
0.100641
0.0969916
0.0971667
0.0961869
0.0962498
0.0960255
0.0960321
0.09597
0.0959423
0.0959149
0.0958863
0.0958668
0.0958462
0.0958308
0.095812
0.0958101
0.0957796
0.0958224
0.0957452
0.0959405
0.0958752
0.0965822
0.0970366
0.0994083
0.100463
0.10351
0.0977069
0.0882288
0.101572
0.0997831
0.100461
0.0967972
0.0969187
0.0959498
0.0960069
0.0957849
0.0958002
0.0957436
0.0957248
0.0957038
0.0956819
0.095667
0.0956513
0.0956407
0.0956269
0.0956275
0.0956015
0.0956441
0.0955813
0.0957726
0.0957453
0.0964218
0.0969813
0.0992846
0.10044
0.103354
0.0977296
0.087854
0.101355
0.0996883
0.100306
0.0966546
0.0967223
0.0957661
0.0958155
0.0955928