/*--------------------------------*- C++ -*----------------------------------*\
  =========                 |
  \\      /  F ield         | OpenFOAM: The Open Source CFD Toolbox
   \\    /   O peration     | Website:  https://openfoam.org
    \\  /    A nd           | Version:  10
     \\/     M anipulation  |
\*---------------------------------------------------------------------------*/
FoamFile
{
    format      ascii;
    class       volScalarField;
    location    "0.1";
    object      k_0;
}
// * * * * * * * * * * * * * * * * * * * * * * * * * * * * * * * * * * * * * //

dimensions      [0 2 -2 0 0 0 0];

internalField   nonuniform List<scalar> 
116798
(
0.337514
0.247699
0.26866
0.219074
0.190561
0.180981
0.183175
0.192377
0.203477
0.21327
0.220525
0.225164
0.227712
0.228746
0.228265
0.226436
0.22359
0.220449
0.21772
0.215764
0.214648
0.214367
0.214867
0.216213
0.218279
0.221288
0.224459
0.228467
0.228848
0.21559
0.389307
0.455785
0.321514
0.244858
0.202771
0.184796
0.182127
0.186826
0.192975
0.197432
0.199396
0.199473
0.198146
0.195723
0.19223
0.188876
0.186269
0.184437
0.183257
0.182646
0.182546
0.182959
0.183814
0.185168
0.186766
0.188819
0.190304
0.1921
0.189566
0.184692
0.297235
0.431356
0.335106
0.260344
0.22067
0.208104
0.208858
0.21255
0.213463
0.210326
0.204309
0.197094
0.189968
0.183941
0.179262
0.175784
0.17324
0.171406
0.170159
0.169449
0.169209
0.169427
0.169975
0.17093
0.171933
0.173344
0.173921
0.175142
0.171946
0.170905
0.292763
0.423256
0.357636
0.284044
0.248661
0.237255
0.23271
0.226031
0.215306
0.202786
0.19133
0.182139
0.174961
0.169579
0.165567
0.16256
0.160315
0.158688
0.157567
0.156894
0.156565
0.15658
0.156806
0.15738
0.157871
0.158808
0.158794
0.159768
0.156016
0.157098
0.313869
0.412117
0.369213
0.305254
0.27134
0.252851
0.235772
0.216772
0.199203
0.185317
0.174864
0.167009
0.161164
0.156778
0.153446
0.150902
0.148964
0.147518
0.146468
0.145771
0.145335
0.145193
0.145183
0.145487
0.14562
0.146248
0.14585
0.146703
0.143215
0.14501
0.328133
0.379188
0.35281
0.30389
0.269525
0.241998
0.216298
0.195149
0.179523
0.168313
0.160058
0.153856
0.149198
0.145614
0.142834
0.140673
0.138998
0.137723
0.136761
0.136088
0.135615
0.135396
0.135243
0.13538
0.135274
0.135706
0.135075
0.135878
0.132794
0.134835
0.315161
0.323479
0.307716
0.272105
0.240387
0.21232
0.189778
0.173409
0.161872
0.153539
0.147276
0.142449
0.138749
0.135858
0.133586
0.131803
0.130404
0.129321
0.128474
0.127854
0.127374
0.127113
0.126859
0.1269
0.126636
0.126986
0.1262
0.127004
0.124526
0.12645
0.271522
0.26148
0.251467
0.225735
0.201935
0.181537
0.16619
0.155095
0.147061
0.14103
0.13637
0.132688
0.129768
0.127465
0.125628
0.124173
0.123021
0.122118
0.121389
0.120842
0.120383
0.12012
0.119819
0.119825
0.119463
0.11979
0.118905
0.119723
0.117931
0.119574
0.215134
0.209372
0.201475
0.183838
0.169585
0.157106
0.1476
0.140351
0.134857
0.130559
0.127141
0.12437
0.122101
0.120292
0.118829
0.117665
0.116736
0.116
0.115388
0.11492
0.114501
0.114261
0.113942
0.113942
0.113535
0.113857
0.112947
0.11375
0.112702
0.113945
0.168531
0.171094
0.163546
0.153766
0.146403
0.139099
0.133335
0.128637
0.12492
0.121894
0.119422
0.117367
0.115635
0.114224
0.113072
0.112152
0.111415
0.110827
0.110323
0.109935
0.109565
0.109359
0.109047
0.10906
0.108636
0.108967
0.108078
0.108847
0.108557
0.109335
0.138704
0.144743
0.138025
0.134266
0.130197
0.125959
0.122435
0.11941
0.116905
0.114799
0.113027
0.111522
0.110222
0.109126
0.108231
0.107515
0.106939
0.106479
0.106071
0.105757
0.105437
0.105273
0.104977
0.105012
0.104592
0.104932
0.104103
0.104817
0.105266
0.105555
0.120866
0.127633
0.122267
0.121551
0.118688
0.116339
0.114105
0.112185
0.11049
0.109042
0.107776
0.106686
0.10572
0.104877
0.104186
0.103636
0.103193
0.102839
0.102514
0.102267
0.101996
0.101872
0.101601
0.101658
0.101259
0.101602
0.100861
0.101502
0.102642
0.102449
0.109798
0.116769
0.112539
0.11282
0.110401
0.109241
0.107727
0.106548
0.105381
0.1044
0.103495
0.102712
0.101996
0.101356
0.100826
0.100409
0.100073
0.0998047
0.0995494
0.0993601
0.0991339
0.0990459
0.0988034
0.0988823
0.0985128
0.0988499
0.0982163
0.0987611
0.100534
0.0998898
0.102533
0.109601
0.106393
0.106564
0.104372
0.103951
0.10283
0.10215
0.101325
0.100675
0.100024
0.0994666
0.0989354
0.0984555
0.0980485
0.0977352
0.0974833
0.0972835
0.0970849
0.0969431
0.096756
0.0967008
0.0964881
0.0965861
0.0962528
0.0965738
0.0960626
0.0964877
0.0988484
0.0977791
0.0975191
0.104642
0.102357
0.101962
0.0999441
0.0999634
0.0990581
0.0987134
0.0981078
0.0976936
0.0972184
0.0968262
0.0964303
0.0960726
0.0957591
0.0955257
0.0953385
0.095192
0.0950393
0.0949359
0.0947842
0.0947573
0.0945755
0.0946877
0.0943927
0.0946895
0.094313
0.094606
0.097503
0.0960381
0.0939224
0.101064
0.0995365
0.0985047
0.0966619
0.0969233
0.0961448
0.0960208
0.0955545
0.0953041
0.0949523
0.0946812
0.0943852
0.094121
0.0938781
0.0937059
0.0935683
0.093463
0.0933475
0.093276
0.0931559
0.0931523
0.0929989
0.0931146
0.0928638
0.0931298
0.0928977
0.0930491
0.0964295
0.0946023
0.0912701
0.0984014
0.0974552
0.0958704
0.0942155
0.0945838
0.0938889
0.093906
0.0935265
0.0933898
0.0931226
0.0929391
0.0927172
0.0925252
0.0923374
0.0922126
0.0921131
0.0920399
0.091955
0.0919083
0.0918164
0.0918271
0.0916999
0.0918112
0.0916092
0.0918381
0.0917576
0.0917612
0.0955715
0.0934182
0.0892853
0.0963761
0.0958742
0.0938447
0.0923934
0.092768
0.0921393
0.0922367
0.0919175
0.091856
0.0916483
0.0915285
0.0913609
0.0912231
0.0910794
0.0909906
0.0909208
0.090872
0.0908116
0.0907838
0.0907136
0.090733
0.0906281
0.0907328
0.0905835
0.090769
0.0908455
0.0906969
0.0948854
0.0924412
0.0877861
0.0948132
0.0946629
0.0922738
0.0910436
0.0913486
0.0907802
0.0909159
0.0906397
0.0906304
0.0904643
0.0903894
0.0902616
0.0901646
0.0900554
0.0899936
0.089946
0.0899152
0.0898739
0.0898587
0.0898064
0.0898268
0.0897482
0.0898416
0.0897473
0.0898843
0.0901208
0.089818
0.0943364
0.0916344
0.0866458
0.0935962
0.0937244
0.0910459
0.0900382
0.090232
0.089725
0.0898671
0.0896266
0.0896481
0.0895137
0.0894713
0.0893735
0.0893061
0.0892234
0.0891814
0.0891503
0.0891313
0.089104
0.0890952
0.0890591
0.0890807
0.0890279
0.0891058
0.0890682
0.0891531
0.0895499
0.089093
0.0938987
0.0909668
0.0857625
0.0926423
0.0929847
0.0900795
0.0892878
0.0893489
0.0889086
0.0890335
0.0888236
0.0888613
0.0887502
0.0887298
0.0886538
0.0886078
0.0885459
0.0885184
0.0884989
0.0884878
0.0884722
0.0884689
0.0884481
0.0884672
0.0884393
0.0884977
0.0885191
0.0885492
0.0891054
0.088495
0.0935493
0.0904147
0.0850734
0.09189
0.0923993
0.089315
0.088728
0.0886475
0.088277
0.0883702
0.0881894
0.0882307
0.0881386
0.0881314
0.0880719
0.0880414
0.0879959
0.0879784
0.0879682
0.0879625
0.0879569
0.0879559
0.0879492
0.0879623
0.087959
0.0879965
0.0880778
0.0880509
0.0887633
0.0880027
0.0932726
0.089959
0.0845336
0.0912934
0.0919399
0.0887076
0.088313
0.0880877
0.0877888
0.0878418
0.0876902
0.0877266
0.0876505
0.0876499
0.0876037
0.0875838
0.0875512
0.0875406
0.0875376
0.0875354
0.0875378
0.0875363
0.0875419
0.0875472
0.0875688
0.0875838
0.0877252
0.0876399
0.0885036
0.0875979
0.0930543
0.0895831
0.0841093
0.0908178
0.0915775
0.0882231
0.0880085
0.0876398
0.0874116
0.0874198
0.0872975
0.0873234
0.0872628
0.0872637
0.0872286
0.0872152
0.0871927
0.0871865
0.0871889
0.0871878
0.0871965
0.0871928
0.0872104
0.0872068
0.0872531
0.0872449
0.0874456
0.087301
0.0883101
0.0872657
0.0928831
0.0892733
0.0837749
0.0904368
0.0912921
0.0878356
0.0877875
0.0872811
0.0871212
0.087082
0.0869891
0.0870014
0.0869549
0.0869543
0.0869288
0.0869188
0.0869041
0.0869001
0.0869066
0.0869053
0.0869199
0.0869129
0.0869419
0.0869282
0.0869997
0.0869673
0.0872262
0.0870213
0.0881689
0.0869933
0.0927502
0.089018
0.0835105
0.0901307
0.0910677
0.0875247
0.0876291
0.0869937
0.0868995
0.0868104
0.0867471
0.0867441
0.0867115
0.0867073
0.0866899
0.0866812
0.0866725
0.0866696
0.0866793
0.0866769
0.0866966
0.0866852
0.0867253
0.0867013
0.0867981
0.0867399
0.0870546
0.0867907
0.0880683
0.0867703
0.0926481
0.0888077
0.0833014
0.089885
0.0908929
0.0872752
0.0875196
0.0867636
0.0867322
0.0865924
0.0865575
0.0865377
0.0865191
0.0865103
0.0865003
0.0864915
0.0864877
0.0864846
0.0864967
0.0864925
0.0865169
0.086501
0.0865524
0.0865174
0.0866383
0.0865532
0.0869212
0.0866007
0.0879977
0.0865881
0.0925711
0.088635
0.0831354
0.0896864
0.0907572
0.0870747
0.0874495
0.0865792
0.0866051
0.0864173
0.0864083
0.0863711
0.0863655
0.0863516
0.0863484
0.086339
0.0863391
0.0863354
0.0863497
0.0863434
0.0863724
0.086352
0.0864138
0.0863671
0.0865111
0.0863992
0.0868169
0.0864427
0.0879525
0.0864407
0.0925141
0.088493
0.0830029
0.0895246
0.0906518
0.0869123
0.0874005
0.0864314
0.0865084
0.0862761
0.0862911
0.0862362
0.0862423
0.0862229
0.0862258
0.0862155
0.086219
0.0862148
0.0862311
0.0862229
0.0862562
0.0862306
0.0863021
0.0862436
0.0864092
0.0862716
0.0867359
0.0863115
0.0879263
0.0863211
0.0924736
0.0883764
0.0828972
0.089392
0.0905706
0.086777
0.0873448
0.0863112
0.0864376
0.0861617
0.0862006
0.0861268
0.0861444
0.0861185
0.0861275
0.0861157
0.0861225
0.0861175
0.0861356
0.086125
0.0861623
0.0861312
0.0862125
0.0861413
0.086328
0.0861653
0.0866745
0.0862018
0.0879041
0.0862237
0.0924463
0.0882806
0.0828133
0.0892828
0.090506
0.0866638
0.0873012
0.0862126
0.0863869
0.0860684
0.0861314
0.0860387
0.0860681
0.0860349
0.0860494
0.0860357
0.0860454
0.0860393
0.0860594
0.0860461
0.0860877
0.0860501
0.0861407
0.0860562
0.0862642
0.0860764
0.08663
0.0861103
0.0878859
0.0861448
0.0924296
0.0882019
0.0827465
0.0891929
0.0904547
0.0865705
0.0872681
0.0861314
0.0863518
0.0859928
0.0860788
0.0859677
0.0860087
0.0859681
0.0859882
0.0859722
0.0859846
0.085977
0.0859988
0.0859825
0.0860277
0.0859835
0.0860831
0.0859859
0.0862145
0.0860026
0.0865987
0.0860338
0.087875
0.0860812
0.0924212
0.0881372
0.0826917
0.089119
0.0904145
0.0864943
0.0872425
0.0860647
0.0863288
0.0859316
0.0860392
0.0859104
0.0859622
0.0859144
0.0859399
0.0859213
0.0859362
0.0859268
0.0859502
0.0859306
0.0859795
0.0859287
0.0860372
0.0859278
0.0861763
0.0859416
0.0865777
0.0859699
0.0878693
0.08603
0.0924189
0.088084
0.0826467
0.0890578
0.0903777
0.0864309
0.0872232
0.0860102
0.0863153
0.0858818
0.0860101
0.085864
0.0859264
0.0858712
0.0859018
0.0858803
0.0858975
0.0858861
0.0859112
0.0858883
0.0859409
0.0858837
0.0860009
0.0858797
0.0861476
0.0858911
0.0865657
0.0859167
0.0878685
0.0859889
0.0924214
0.0880404
0.0826106
0.0890071
0.0903473
0.0863785
0.0872094
0.0859658
0.0863079
0.0858416
0.0859886
0.0858263
0.0858987
0.0858363
0.0858718
0.0858474
0.0858669
0.0858534
0.0858802
0.0858539
0.0859101
0.0858467
0.0859721
0.0858401
0.0861261
0.0858495
0.0865589
0.0858726
0.0878692
0.0859557
0.0924274
0.0880045
0.0825817
0.0889648
0.0903217
0.0863351
0.0872004
0.0859297
0.0863061
0.0858087
0.0859741
0.0857955
0.0858776
0.0858079
0.0858484
0.0858208
0.0858427
0.0858269
0.0858553
0.0858256
0.0858855
0.085816
0.08595
0.0858071
0.0861111
0.085815
0.0865569
0.0858361
0.0878727
0.085929
0.092436
0.0879751
0.0825584
0.0889296
0.090301
0.0862992
0.0871954
0.0859005
0.0863075
0.0857821
0.085964
0.0857705
0.0858614
0.0857848
0.0858299
0.0857992
0.0858234
0.0858053
0.0858356
0.0858025
0.0858661
0.0857908
0.0859325
0.0857798
0.0861002
0.0857863
0.0865577
0.0858058
0.0878785
0.0859078
0.0924464
0.0879509
0.0825396
0.0889001
0.0902849
0.0862692
0.0871939
0.0858768
0.0863122
0.0857605
0.0859584
0.0857499
0.0858495
0.0857658
0.0858155
0.0857815
0.0858081
0.0857876
0.0858198
0.0857832
0.0858506
0.0857695
0.0859192
0.0857566
0.0860935
0.085762
0.0865635
0.0857805
0.0878863
0.0858907
0.0924578
0.0879311
0.0825245
0.0888752
0.0902721
0.0862442
0.0871955
0.0858565
0.0863163
0.0857432
0.0859557
0.0857329
0.0858403
0.0857498
0.0858041
0.0857667
0.0857958
0.0857729
0.0858071
0.0857672
0.0858383
0.0857517
0.0859087
0.0857373
0.0860896
0.0857413
0.0865756
0.0857596
0.087897
0.0858771
0.09247
0.0879149
0.0825123
0.0888543
0.0902618
0.0862232
0.0871996
0.0858384
0.0863195
0.0857291
0.085956
0.0857187
0.0858337
0.0857364
0.0857951
0.0857541
0.0857858
0.0857604
0.0857967
0.0857533
0.0858283
0.0857365
0.0859011
0.0857208
0.0860888
0.0857237
0.0865842
0.0857424
0.087909
0.0858664
0.0924825
0.0879015
0.0825024
0.0888365
0.0902539
0.0862055
0.0872056
0.0858232
0.0863224
0.0857176
0.085958
0.0857068
0.0858289
0.085725
0.0857879
0.0857433
0.0857777
0.0857496
0.0857883
0.0857415
0.0858205
0.0857236
0.0858953
0.085707
0.08609
0.0857087
0.0865882
0.0857283
0.0879209
0.0858579
0.0924952
0.0878905
0.0824945
0.0888213
0.090248
0.0861906
0.0872129
0.0858106
0.0863264
0.0857082
0.0859614
0.0856968
0.0858256
0.0857152
0.0857823
0.085734
0.0857712
0.0857403
0.0857814
0.0857312
0.0858142
0.0857124
0.0858914
0.0856952
0.0860928
0.0856962
0.0865919
0.0857168
0.087933
0.0858513
0.0925078
0.0878816
0.0824882
0.0888085
0.0902436
0.0861781
0.0872212
0.0858002
0.0863312
0.0857006
0.0859657
0.0856883
0.0858235
0.0857067
0.0857778
0.0857257
0.0857659
0.0857321
0.0857758
0.0857222
0.0858093
0.0857027
0.0858886
0.0856852
0.0860967
0.0856859
0.0865958
0.0857075
0.0879448
0.0858461
0.0925202
0.0878742
0.0824831
0.0887975
0.0902404
0.0861675
0.0872298
0.0857915
0.0863366
0.0856945
0.0859706
0.0856812
0.0858223
0.0856992
0.0857743
0.0857184
0.0857615
0.0857246
0.0857712
0.0857142
0.0858053
0.0856942
0.0858869
0.0856766
0.0861013
0.0856774
0.0866005
0.0856998
0.0879564
0.0858421
0.0925323
0.0878682
0.082479
0.0887881
0.0902382
0.0861586
0.0872378
0.0857841
0.0863422
0.0856896
0.0859759
0.0856752
0.0858218
0.0856927
0.0857715
0.0857117
0.0857578
0.0857178
0.0857673
0.0857069
0.0858021
0.0856867
0.085886
0.0856693
0.0861063
0.0856704
0.0866063
0.0856931
0.0879673
0.0858389
0.0925439
0.0878632
0.0824757
0.0887801
0.090237
0.086151
0.087246
0.0857778
0.0863479
0.0856854
0.0859833
0.0856704
0.0858223
0.0856869
0.0857693
0.0857056
0.0857547
0.0857115
0.0857641
0.0857003
0.0857997
0.0856801
0.0858861
0.0856628
0.0861143
0.0856646
0.086613
0.0856876
0.0879778
0.0858365
0.0925549
0.0878591
0.0824731
0.0887733
0.0902365
0.0861445
0.0872542
0.0857723
0.086354
0.0856815
0.0859895
0.0856664
0.0858234
0.0856818
0.0857678
0.0857001
0.0857522
0.0857057
0.0857615
0.0856945
0.0857979
0.0856742
0.0858868
0.0856571
0.0861235
0.0856599
0.0866202
0.0856829
0.0879879
0.0858347
0.0925653
0.0878558
0.0824711
0.0887674
0.0902366
0.086139
0.0872622
0.0857676
0.0863603
0.0856782
0.0859945
0.0856629
0.085825
0.0856773
0.0857668
0.0856951
0.0857504
0.0857005
0.0857595
0.0856892
0.0857967
0.0856691
0.085888
0.0856521
0.0861295
0.0856561
0.0866273
0.085679
0.0879973
0.0858333
0.092575
0.0878531
0.0824695
0.0887623
0.0902371
0.0861343
0.0872694
0.0857635
0.0863668
0.0856753
0.0859993
0.0856599
0.0858266
0.0856733
0.0857662
0.0856905
0.0857488
0.0856957
0.0857578
0.0856843
0.0857959
0.0856644
0.0858895
0.0856478
0.0861336
0.085653
0.0866344
0.0856757
0.0880062
0.0858322
0.0925841
0.0878508
0.0824682
0.0887578
0.0902378
0.0861303
0.087276
0.0857599
0.0863733
0.0856731
0.0860043
0.0856574
0.0858283
0.0856696
0.0857657
0.0856862
0.0857476
0.0856911
0.0857565
0.0856798
0.0857954
0.0856604
0.0858913
0.0856443
0.0861382
0.0856505
0.0866413
0.0856729
0.0880144
0.0858314
0.0925925
0.087849
0.0824672
0.088754
0.0902388
0.0861268
0.087282
0.0857569
0.0863798
0.0856712
0.0860096
0.0856553
0.0858303
0.0856663
0.0857656
0.0856822
0.0857466
0.0856868
0.0857555
0.0856757
0.0857953
0.0856569
0.0858934
0.0856414
0.086143
0.0856486
0.086648
0.0856705
0.088022
0.0858309
0.0926002
0.0878474
0.0824665
0.0887507
0.0902398
0.0861238
0.0872875
0.0857544
0.0863862
0.0856697
0.086015
0.0856534
0.0858337
0.0856636
0.0857658
0.0856786
0.085746
0.085683
0.0857549
0.0856721
0.0857956
0.0856538
0.0858969
0.0856389
0.0861481
0.085647
0.0866544
0.0856685
0.088029
0.0858305
0.0926073
0.0878461
0.0824659
0.0887478
0.0902408
0.0861212
0.0872925
0.0857522
0.0863925
0.0856685
0.0860205
0.0856517
0.0858372
0.0856612
0.0857664
0.0856754
0.0857457
0.0856795
0.0857546
0.0856688
0.0857962
0.0856511
0.0859013
0.0856369
0.0861532
0.0856457
0.0866603
0.0856668
0.0880355
0.0858303
0.0926137
0.087845
0.0824654
0.0887453
0.0902418
0.086119
0.0872968
0.0857503
0.0863986
0.0856675
0.0860261
0.0856501
0.08584
0.0856592
0.0857672
0.0856725
0.0857457
0.0856763
0.0857547
0.0856659
0.0857972
0.0856486
0.0859049
0.0856352
0.0861582
0.0856447
0.0866658
0.0856653
0.0880414
0.0858301
0.0926196
0.0878441
0.0824651
0.0887432
0.0902427
0.086117
0.0873007
0.0857486
0.0864042
0.0856667
0.0860316
0.0856488
0.0858428
0.0856573
0.0857681
0.0856698
0.0857459
0.0856734
0.0857549
0.0856633
0.0857981
0.0856465
0.0859077
0.0856338
0.0861631
0.085644
0.0866709
0.0856641
0.0880468
0.0858301
0.0926249
0.0878433
0.0824648
0.0887413
0.0902435
0.0861153
0.0873041
0.0857472
0.0864093
0.0856661
0.0860368
0.0856476
0.0858457
0.0856557
0.0857691
0.0856674
0.0857462
0.0856707
0.0857553
0.0856609
0.0857993
0.0856446
0.0859107
0.0856327
0.0861678
0.0856434
0.0866757
0.085663
0.0880516
0.0858301
0.0926298
0.0878427
0.0824646
0.0887397
0.0902442
0.0861138
0.087307
0.085746
0.0864139
0.0856655
0.0860417
0.0856466
0.0858486
0.0856543
0.0857709
0.0856653
0.0857467
0.0856684
0.0857558
0.0856588
0.085801
0.0856431
0.0859137
0.0856317
0.0861722
0.0856429
0.0866799
0.0856621
0.0880559
0.0858301
0.0926341
0.0878421
0.0824645
0.0887383
0.0902447
0.0861125
0.0873094
0.0857449
0.0864181
0.085665
0.0860463
0.0856457
0.0858514
0.085653
0.0857729
0.0856635
0.0857473
0.0856663
0.0857564
0.085657
0.0858032
0.0856417
0.0859167
0.0856309
0.0861763
0.0856426
0.0866836
0.0856612
0.0880597
0.0858302
0.0926379
0.0878417
0.0824644
0.0887371
0.0902451
0.0861114
0.0873114
0.085744
0.0864217
0.0856646
0.0860504
0.0856449
0.0858541
0.0856519
0.0857747
0.085662
0.085748
0.0856644
0.0857571
0.0856554
0.0858052
0.0856406
0.0859194
0.0856302
0.0861798
0.0856423
0.0866868
0.0856605
0.088063
0.0858303
0.0926412
0.0878413
0.0824643
0.0887361
0.0902452
0.0861103
0.0873129
0.0857432
0.0864248
0.0856642
0.086054
0.0856442
0.0858565
0.0856508
0.0857764
0.0856606
0.085749
0.0856628
0.085758
0.085654
0.085807
0.0856396
0.0859219
0.0856296
0.0861828
0.085642
0.0866895
0.0856599
0.0880657
0.0858303
0.0926441
0.087841
0.0824642
0.0887352
0.0902451
0.0861094
0.0873138
0.0857424
0.0864271
0.0856638
0.086057
0.0856437
0.0858587
0.0856499
0.0857778
0.0856594
0.0857502
0.0856614
0.0857592
0.0856527
0.0858086
0.0856387
0.085924
0.0856291
0.0861852
0.0856417
0.0866916
0.0856594
0.0880678
0.0858304
0.0926466
0.0878407
0.0824642
0.0887345
0.0902446
0.0861085
0.087314
0.0857418
0.0864286
0.0856634
0.0860593
0.0856431
0.0858605
0.0856491
0.0857791
0.0856583
0.0857512
0.0856602
0.0857603
0.0856517
0.0858099
0.085638
0.0859258
0.0856287
0.0861871
0.0856415
0.0866931
0.0856589
0.0880694
0.0858305
0.0926485
0.0878404
0.0824642
0.0887339
0.0902435
0.0861077
0.0873135
0.0857412
0.0864292
0.0856629
0.0860607
0.0856426
0.0858617
0.0856484
0.08578
0.0856574
0.085752
0.0856592
0.0857611
0.0856508
0.0858108
0.0856373
0.085927
0.0856283
0.0861882
0.0856412
0.086694
0.0856585
0.0880703
0.0858305
0.09265
0.0878402
0.0824642
0.0887334
0.090242
0.0861069
0.0873121
0.0857407
0.0864288
0.0856624
0.0860612
0.0856422
0.0858623
0.0856478
0.0857805
0.0856567
0.0857525
0.0856584
0.0857616
0.0856501
0.0858114
0.0856368
0.0859275
0.0856279
0.0861885
0.0856408
0.0866941
0.0856582
0.0880705
0.0858305
0.092651
0.0878399
0.0824641
0.0887331
0.0902397
0.0861061
0.0873097
0.0857402
0.0864273
0.0856618
0.0860606
0.0856417
0.0858621
0.0856473
0.0857804
0.0856561
0.0857525
0.0856578
0.0857616
0.0856495
0.0858113
0.0856364
0.0859273
0.0856276
0.0861878
0.0856404
0.0866933
0.0856578
0.0880699
0.0858305
0.0926515
0.0878397
0.0824641
0.0887329
0.0902366
0.0861053
0.0873061
0.0857396
0.0864245
0.0856611
0.0860587
0.0856413
0.0858612
0.0856469
0.0857799
0.0856557
0.0857521
0.0856574
0.0857612
0.0856491
0.0858106
0.085636
0.0859262
0.0856272
0.086186
0.0856399
0.0866917
0.0856576
0.0880684
0.0858305
0.0926515
0.0878395
0.0824641
0.0887329
0.0902325
0.0861044
0.0873012
0.0857391
0.0864203
0.0856602
0.0860552
0.0856408
0.085859
0.0856466
0.0857784
0.0856555
0.0857509
0.0856571
0.0857599
0.0856489
0.0858091
0.0856357
0.085924
0.0856267
0.0861828
0.0856393
0.0866888
0.0856573
0.0880657
0.0858304
0.0926507
0.0878392
0.082464
0.088733
0.0902272
0.0861034
0.0872945
0.0857385
0.0864144
0.0856592
0.0860502
0.0856403
0.0858561
0.0856464
0.0857766
0.0856554
0.0857495
0.085657
0.0857583
0.0856488
0.0858069
0.0856355
0.0859208
0.0856263
0.0861783
0.0856385
0.0866848
0.085657
0.0880621
0.0858303
0.0926493
0.087839
0.082464
0.0887333
0.0902208
0.0861024
0.0872865
0.0857379
0.0864074
0.085658
0.0860435
0.0856398
0.0858518
0.0856463
0.0857736
0.0856556
0.085747
0.0856572
0.0857558
0.0856488
0.0858038
0.0856353
0.0859165
0.0856258
0.0861723
0.0856376
0.0866793
0.0856568
0.088057
0.0858301
0.0926471
0.0878386
0.082464
0.0887339
0.0902129
0.0861012
0.0872758
0.0857372
0.0863974
0.0856565
0.0860346
0.0856393
0.0858468
0.0856464
0.0857706
0.0856559
0.0857445
0.0856575
0.0857529
0.0856491
0.0857999
0.0856353
0.0859109
0.0856253
0.0861648
0.0856365
0.0866728
0.0856566
0.0880513
0.0858299
0.0926444
0.0878383
0.0824642
0.0887346
0.0902044
0.0861001
0.0872652
0.0857366
0.0863884
0.0856552
0.0860252
0.085639
0.0858407
0.0856467
0.0857662
0.0856565
0.085741
0.0856582
0.0857494
0.0856495
0.0857955
0.0856353
0.0859046
0.0856247
0.0861561
0.0856353
0.0866646
0.0856564
0.0880437
0.0858296
0.0926409
0.087838
0.0824643
0.0887355
0.0901942
0.0860989
0.0872505
0.0857359
0.0863738
0.0856534
0.0860119
0.0856386
0.0858337
0.0856472
0.0857622
0.0856573
0.0857377
0.0856591
0.0857454
0.0856503
0.0857903
0.0856356
0.0858975
0.0856243
0.0861462
0.085634
0.0866567
0.0856564
0.0880369
0.0858294
0.0926375
0.0878378
0.0824645
0.0887364
0.0901854
0.0860979
0.08724
0.0857354
0.0863657
0.0856523
0.0860028
0.0856385
0.0858276
0.0856478
0.0857578
0.0856583
0.085734
0.0856601
0.0857417
0.085651
0.0857853
0.0856359
0.0858898
0.0856239
0.0861349
0.0856327
0.0866465
0.0856564
0.0880276
0.0858292
0.0926331
0.0878375
0.0857348
0.0863475
0.0856505
0.085986
0.0856384
0.0858185
0.085649
0.0857526
0.0856599
0.0857299
0.0856619
0.0857368
0.0856525
0.0857795
0.0856365
0.0858835
0.0856237
0.0861261
0.0856318
0.08664
0.0856565
0.0880221
0.0858289
0.0926298
0.0878373
0.0863462
0.0856503
0.0859826
0.0856386
0.0858156
0.0856494
0.0857503
0.0856609
0.0857276
0.0856628
0.0857344
0.0856532
0.0857751
0.0856372
0.0858753
0.0856236
0.0861146
0.0856307
0.0866299
0.0856568
0.0880131
0.0858287
0.0926254
0.0878371
0.085965
0.0856391
0.0858052
0.0856517
0.085744
0.0856633
0.0857234
0.0856657
0.0857295
0.0856556
0.0857701
0.085638
0.0858732
0.0856237
0.0861132
0.0856308
0.0866292
0.0856571
0.0880119
0.0858285
0.0926232
0.0878373
0.0856664
0.0857292
0.0856563
0.085767
0.0856392
0.085866
0.0856241
0.0861044
0.0856304
0.0866221
0.0856577
0.0880057
0.0858284
0.0926194
0.0878374
0.0857269
0.0856587
0.085765
0.0856402
0.0858664
0.0856246
0.0861084
0.0856315
0.0866266
0.0856583
0.0880087
0.0858283
0.0926182
0.0878378
0.0856616
0.085762
0.0856418
0.0858632
0.0856254
0.0861056
0.085632
0.0866232
0.0856592
0.0880049
0.0858283
0.0926147
0.0878382
0.0857632
0.085643
0.0858643
0.0856266
0.0861087
0.0856333
0.0866273
0.0856599
0.0880081
0.0858282
0.0926132
0.0878388
0.0856277
0.0861063
0.0856341
0.086624
0.085661
0.0880043
0.0858281
0.092609
0.0878393
0.265629
0.196586
0.239505
0.210283
0.173661
0.149817
0.133113
0.121774
0.114115
0.109011
0.105806
0.104053
0.103378
0.103475
0.104073
0.10505
0.106219
0.107348
0.108363
0.109339
0.11041
0.111657
0.113154
0.114907
0.117022
0.119406
0.122432
0.125324
0.129152
0.13693
0.522729
0.218314
0.252683
0.223189
0.1852
0.154461
0.133407
0.120433
0.112916
0.108852
0.106941
0.106221
0.106053
0.106109
0.106222
0.106322
0.106408
0.106528
0.106736
0.107088
0.107599
0.108298
0.109176
0.11024
0.11157
0.112871
0.11487
0.11523
0.118105
0.112627
0.473909
0.209013
0.251487
0.215896
0.175061
0.145294
0.127076
0.116774
0.111155
0.108265
0.106944
0.106416
0.1062
0.106088
0.106029
0.106031
0.106114
0.106289
0.106557
0.106921
0.107382
0.107941
0.108628
0.109369
0.110358
0.111043
0.11246
0.112091
0.1148
0.107743
0.454042
0.209005
0.246609
0.202952
0.161908
0.135882
0.121544
0.114012
0.110266
0.108515
0.107661
0.107125
0.106712
0.106385
0.106146
0.105997
0.105937
0.10597
0.106093
0.106309
0.106616
0.107004
0.1075
0.107992
0.108716
0.108981
0.110013
0.109052
0.111744
0.107325
0.454291
0.218587
0.233767
0.184687
0.148547
0.128221
0.117888
0.112738
0.110162
0.108712
0.107734
0.106991
0.106419
0.105993
0.105695
0.105512
0.105432
0.105446
0.105541
0.105712
0.105955
0.106247
0.106638
0.106966
0.107556
0.107569
0.108499
0.107531
0.110608
0.105959
0.45748
0.224168
0.208894
0.164372
0.136905
0.122623
0.115589
0.111958
0.109865
0.108448
0.107407
0.106622
0.106035
0.105604
0.105299
0.105098
0.104984
0.104948
0.104983
0.105082
0.105247
0.105443
0.105738
0.105928
0.106406
0.106217
0.107066
0.106125
0.109441
0.105081
0.441626
0.207596
0.178069
0.1456
0.127695
0.11855
0.113834
0.111036
0.109176
0.107811
0.106798
0.106035
0.105472
0.105053
0.104753
0.10455
0.104427
0.104376
0.104387
0.104447
0.104568
0.104697
0.104932
0.10502
0.105441
0.105109
0.105991
0.105157
0.108706
0.104012
0.383332
0.175138
0.150345
0.131163
0.120965
0.115312
0.112016
0.109759
0.108158
0.106952
0.106055
0.105374
0.104867
0.104485
0.104204
0.104004
0.103872
0.103799
0.103781
0.103802
0.10388
0.10395
0.104135
0.10414
0.10452
0.104076
0.105028
0.104299
0.108036
0.103
0.286938
0.145426
0.131031
0.121587
0.116059
0.112459
0.110099
0.108322
0.107026
0.106016
0.105255
0.104662
0.104212
0.103865
0.103605
0.103413
0.103282
0.103201
0.103168
0.103165
0.103216
0.103244
0.103399
0.10334
0.1037
0.103186
0.104263
0.103634
0.107513
0.101912
0.199843
0.126685
0.1196
0.115498
0.112266
0.109923
0.108247
0.106895
0.105884
0.105063
0.104435
0.103931
0.103541
0.103235
0.103
0.102821
0.102692
0.102606
0.102561
0.102538
0.102568
0.102562
0.102695
0.102584
0.102933
0.102391
0.103599
0.103067
0.107045
0.100977
0.151264
0.116941
0.112988
0.111421
0.109246
0.107759
0.106569
0.105568
0.104792
0.104133
0.103621
0.103196
0.102861
0.102593
0.102382
0.102219
0.102099
0.102013
0.101964
0.101928
0.101947
0.101915
0.102036
0.101882
0.102232
0.101707
0.103032
0.102597
0.106622
0.100178
0.128373
0.11189
0.108932
0.108556
0.10686
0.105957
0.105085
0.104359
0.103764
0.103241
0.102829
0.102475
0.102194
0.101963
0.10178
0.101635
0.101524
0.10144
0.101388
0.101342
0.101351
0.101296
0.101412
0.101215
0.10158
0.101094
0.102526
0.102153
0.106235
0.0995411
0.115941
0.109029
0.106324
0.1065
0.104987
0.104469
0.103784
0.103268
0.102812
0.102403
0.102075
0.101784
0.101552
0.101354
0.101196
0.101065
0.100961
0.100877
0.100822
0.100766
0.100771
0.100693
0.100812
0.100563
0.100978
0.100508
0.102071
0.101775
0.105879
0.0990337
0.108088
0.107252
0.104595
0.104997
0.103506
0.103237
0.102654
0.102291
0.101934
0.10162
0.101361
0.101122
0.100929
0.100756
0.100609
0.100478
0.100369
0.100276
0.100214
0.100144
0.100153
0.100043
0.100188
0.0998472
0.100397
0.09984
0.101652
0.101467
0.105548
0.0986461
0.102722
0.10604
0.103395
0.103883
0.10231
0.102209
0.101655
0.101411
0.10111
0.100855
0.10063
0.100408
0.100217
0.100032
0.0998736
0.0997309
0.0996121
0.0995081
0.0994388
0.0993489
0.0993657
0.0992142
0.0994379
0.0990254
0.099768
0.0992159
0.101283
0.101224
0.10525
0.0983538
0.0988888
0.105144
0.102511
0.103057
0.101274
0.101325
0.100725
0.100563
0.100264
0.100037
0.0998187
0.0996047
0.0994198
0.0992359
0.0990815
0.0989429
0.0988338
0.098739
0.0986804
0.0985956
0.098618
0.0984713
0.0986956
0.098317
0.099133
0.0986831
0.100967
0.101035
0.104978
0.0981367
0.0960694
0.104447
0.101844
0.102442
0.10033
0.10054
0.0998137
0.0997178
0.099398
0.0991922
0.0989889
0.0987876
0.0986232
0.0984649
0.0983428
0.0982355
0.0981507
0.0980752
0.0980293
0.0979576
0.0979849
0.0978476
0.0980766
0.0977269
0.0985547
0.0982458
0.100673
0.100887
0.104728
0.0979738
0.0939539
0.103881
0.101345
0.101972
0.0994571
0.0997731
0.0988993
0.0988757
0.0985584
0.0983861
0.098207
0.0980502
0.097931
0.097813
0.0977223
0.0976403
0.0975758
0.0975159
0.0974817
0.0974162
0.0974527
0.0973339
0.0975494
0.0972415
0.0980652
0.0978972
0.100399
0.10077
0.104489
0.0978633
0.092343
0.103411
0.100949
0.1016
0.0986787
0.099028
0.0980576
0.0980928
0.0978122
0.0977119
0.0975709
0.0974537
0.0973618
0.0972702
0.0972018
0.0971395
0.0970907
0.0970439
0.0970236
0.0969711
0.0970178
0.0969001
0.0971013
0.0968509
0.0976574
0.0976273
0.100153
0.100681
0.104261
0.0977946
0.0911034
0.102934
0.100579
0.101297
0.0980709
0.0983891
0.0973999
0.0974643
0.0972098
0.0971533
0.097053
0.0969699
0.0969006
0.0968303
0.0967783
0.0967305
0.0966948
0.0966594
0.0966472
0.096605
0.0966429
0.0965323
0.0967301
0.0965341
0.0973207
0.0974203
0.0999344
0.100611
0.104048
0.0977661
0.0901418
0.102512
0.100297
0.101051
0.0976139
0.097891
0.0968996
0.0969737
0.0967323
0.0967066
0.0966235
0.0965667
0.0965204
0.096471
0.0964327
0.0963964
0.0963708
0.0963422
0.0963311
0.0962889
0.096331
0.0962317
0.0964282
0.0962798
0.0970411
0.0972638
0.0997425
0.100556
0.10385
0.0977621
0.0893905
0.102153
0.100085
0.100844
0.097271
0.0974994
0.0965144
0.096586
0.096356
0.0963493
0.0962797
0.0962412
0.0962064
0.0961683
0.0961411
0.0961143
0.0960943
0.0960719
0.096067
0.0960313
0.0960731
0.0959862
0.0961812
0.0960754
0.0968099
0.0971488
0.0995763
0.100513
0.103666
0.09777
0.0888001
0.101851
0.0999244
0.100642
0.0970149
0.0971898
0.096215
0.0962795
0.0960566
0.096064
0.0960027
0.0959759
0.0959491
0.0959213
0.0959024
0.0958823
0.0958672
0.0958489
0.0958473
0.0958173
0.0958601
0.0957838
0.0959785
0.0959127
0.0966185
0.097068
0.0994337
0.100481
0.103498
0.0977865
0.088334
0.101598
0.099803
0.100465
0.0968247
0.0969454
0.095982
0.0960403
0.0958198
0.0958356
0.0957797
0.0957616
0.095741
0.0957197
0.0957051
0.0956899
0.0956795
0.0956661
0.0956668
0.0956413
0.0956838
0.0956216
0.0958123
0.0957842
0.0964594
0.0970134
0.0993112
0.100459
0.103344
0.0978093
0.0879646
0.101384
0.0997106
0.100313
0.0966853
0.0967517
0.0958015
0.0958518
0.0956307