/*--------------------------------*- C++ -*----------------------------------*\
  =========                 |
  \\      /  F ield         | OpenFOAM: The Open Source CFD Toolbox
   \\    /   O peration     | Website:  https://openfoam.org
    \\  /    A nd           | Version:  10
     \\/     M anipulation  |
\*---------------------------------------------------------------------------*/
FoamFile
{
    format      ascii;
    class       volScalarField;
    location    "0.1";
    object      nut;
}
// * * * * * * * * * * * * * * * * * * * * * * * * * * * * * * * * * * * * * //

dimensions      [0 2 -1 0 0 0 0];

internalField   nonuniform List<scalar> 
116798
(
0.000436868
0.000341908
0.000374996
0.000379828
0.000423181
0.000498763
0.000561473
0.000567581
0.000540032
0.000512471
0.000493001
0.000479387
0.000469928
0.000462824
0.000456222
0.000449113
0.000440991
0.000432465
0.000424347
0.000417007
0.000410445
0.000404501
0.000399156
0.000394385
0.00039035
0.000387261
0.000384818
0.000384348
0.000381341
0.0003922
0.000948449
0.000616367
0.000499984
0.000471023
0.000477617
0.000525604
0.000582775
0.000617401
0.000625064
0.000619263
0.00060941
0.000600274
0.000593679
0.000587755
0.000579799
0.00057162
0.000564391
0.000558211
0.000552754
0.000547816
0.000543445
0.000539581
0.000536466
0.000533994
0.000532522
0.000532036
0.000532453
0.000535192
0.000536911
0.000592496
0.000473426
0.000563219
0.000506514
0.000489115
0.000514325
0.000575281
0.000627718
0.000643665
0.000633136
0.000615477
0.000599409
0.000585638
0.000574051
0.00056456
0.000557348
0.000552005
0.000547806
0.000544393
0.00054152
0.000539079
0.000537257
0.00053588
0.000535343
0.00053528
0.000536416
0.000538246
0.000541346
0.000546425
0.000549388
0.00060685
0.000362146
0.000550215
0.000530844
0.000527232
0.000570249
0.000628425
0.000653573
0.000641328
0.000615748
0.000592906
0.000576605
0.00056483
0.000556162
0.000549698
0.000545019
0.000541502
0.000538714
0.00053636
0.000534413
0.00053271
0.000531379
0.000530123
0.000529585
0.000529159
0.000529945
0.000530881
0.000532961
0.000536339
0.000533951
0.000592142
0.000355662
0.000548913
0.000549086
0.000570966
0.000615587
0.000645243
0.00063374
0.00060366
0.000578394
0.000563199
0.000554769
0.000547905
0.000543487
0.000540366
0.000538217
0.000536695
0.000535564
0.000534553
0.000533694
0.000532788
0.000532109
0.000531258
0.000531203
0.000530839
0.000531843
0.000532298
0.000534252
0.000535945
0.00053271
0.000589084
0.000367709
0.000536493
0.00054741
0.000586642
0.000614158
0.000609057
0.000581288
0.00055868
0.000546888
0.000541598
0.000539458
0.000538058
0.000536982
0.000536551
0.000536377
0.00053638
0.000536498
0.000536503
0.000536517
0.000536253
0.000536246
0.00053582
0.00053618
0.00053579
0.000536954
0.000536784
0.000538729
0.000539049
0.000536131
0.000593219
0.000360943
0.000505515
0.00052202
0.000555661
0.000562809
0.000548059
0.000533336
0.00052708
0.000526642
0.000528418
0.000531118
0.000533866
0.000535493
0.000537414
0.000539143
0.000540757
0.0005423
0.000543517
0.000544619
0.000545192
0.000545999
0.000546065
0.000547004
0.000546694
0.000548374
0.000547704
0.000550083
0.000549145
0.000548097
0.000605167
0.000322405
0.000467714
0.000483685
0.000500793
0.000504844
0.000503034
0.000505054
0.000509921
0.000516583
0.000523167
0.000529615
0.00053556
0.000539784
0.000543687
0.000547132
0.000550155
0.000552942
0.000555198
0.000557277
0.000558583
0.000560191
0.000560634
0.000562326
0.000561995
0.00056437
0.000563092
0.000566352
0.000563975
0.000565575
0.000623215
0.000272654
0.000442396
0.000451924
0.000460508
0.000473804
0.00048315
0.000494333
0.00050489
0.000515916
0.000525779
0.000535053
0.000543196
0.000550161
0.000555473
0.000560491
0.000564819
0.000568809
0.000572079
0.000575171
0.000577223
0.000579745
0.000580609
0.00058315
0.000582745
0.000586185
0.000584086
0.000588973
0.000584446
0.00058928
0.000647453
0.000240823
0.000436292
0.000439828
0.000450617
0.000469231
0.000481906
0.00049718
0.000510485
0.000524246
0.000536252
0.000547647
0.000557559
0.000566544
0.000573268
0.000579679
0.000585148
0.000590207
0.000594344
0.000598376
0.000601057
0.000604511
0.000605653
0.000609209
0.000608501
0.000613333
0.000610045
0.000617264
0.000609875
0.00061813
0.00067736
0.000233593
0.00044735
0.000450907
0.000463705
0.000481291
0.000494278
0.00051153
0.000525932
0.00054146
0.000554711
0.000567654
0.000578836
0.000589435
0.000597271
0.000604983
0.000611462
0.000617499
0.000622397
0.000627353
0.000630579
0.000635052
0.000636375
0.000641126
0.000639864
0.000646457
0.000641529
0.000651941
0.000640609
0.000652106
0.000713028
0.000242921
0.000474977
0.000482252
0.000489327
0.000505786
0.000518105
0.000536378
0.000550782
0.000567474
0.000581231
0.000595285
0.00060729
0.000618863
0.00062836
0.000636866
0.000644186
0.000651092
0.000656599
0.000662435
0.000666044
0.0006716
0.000672841
0.000679117
0.000676867
0.00068586
0.00067845
0.000693052
0.000676411
0.000690662
0.000754521
0.000261687
0.000515396
0.00052692
0.000523835
0.000541858
0.000552158
0.000571249
0.000584724
0.000602307
0.000615949
0.000630861
0.000643312
0.000655837
0.000666318
0.000675659
0.00068373
0.000691428
0.000697393
0.000704102
0.000707921
0.000714679
0.000715525
0.000723707
0.00071994
0.000731984
0.000721222
0.000741255
0.000717509
0.000733569
0.000802015
0.000286527
0.00056383
0.000581356
0.000566817
0.000589069
0.00059556
0.000615996
0.000627599
0.000646087
0.000659045
0.000674711
0.000687229
0.000700589
0.000711748
0.000721942
0.000730574
0.000738974
0.000745217
0.000752803
0.000756604
0.000764711
0.000764811
0.000775283
0.000769343
0.000785299
0.000770022
0.000797036
0.000764127
0.000779135
0.000855486
0.000316269
0.000617915
0.000643391
0.000617954
0.000647209
0.00064783
0.000670778
0.000679384
0.000699157
0.000710795
0.000727257
0.000739482
0.00075359
0.000765199
0.000776158
0.0007852
0.000794279
0.000800624
0.000809132
0.000812651
0.000822335
0.000821177
0.000834411
0.000825512
0.000846525
0.000825275
0.000861102
0.000816391
0.000826926
0.000915025
0.000350626
0.000676656
0.000711025
0.000677155
0.000716565
0.000708873
0.000736025
0.000740235
0.000762012
0.000771549
0.000789034
0.000800549
0.000815464
0.000827331
0.000838859
0.000848252
0.000858003
0.000864225
0.00087373
0.00087661
0.000888168
0.000885134
0.00090194
0.000888859
0.000916367
0.000887293
0.000934063
0.000874305
0.00087601
0.000980602
0.000389768
0.000739884
0.000783679
0.0007444
0.000797491
0.000778852
0.00081244
0.000810509
0.000835313
0.000841763
0.000860787
0.000871057
0.000886898
0.000898566
0.000911117
0.000920479
0.000930894
0.000936725
0.000947339
0.000949139
0.000962936
0.000957231
0.000978546
0.000959941
0.000995744
0.000956447
0.00101663
0.000937892
0.00092537
0.00105209
0.000433991
0.0008078
0.000862072
0.000819567
0.000890807
0.000858054
0.00090103
0.000890725
0.000919976
0.000922074
0.000943312
0.000951726
0.000968735
0.000979716
0.000993709
0.0010026
0.00101372
0.00101884
0.00103076
0.00103095
0.00104744
0.00103814
0.0010652
0.00103936
0.00108559
0.00103308
0.00110946
0.00100706
0.000973882
0.00112921
0.000483653
0.000879985
0.000946628
0.000902316
0.000997184
0.000946827
0.00100277
0.000981466
0.00101713
0.00101332
0.00103764
0.00104341
0.00106192
0.00107196
0.00108716
0.00109541
0.00110738
0.00111141
0.00112487
0.0011227
0.00114279
0.00112871
0.00116303
0.00112767
0.00118698
0.00111756
0.0012131
0.0010816
0.00102055
0.00121178
0.000539212
0.000955667
0.00103544
0.000992136
0.00111719
0.00104568
0.00111905
0.00108346
0.00112813
0.00111644
0.00114506
0.0011471
0.00116754
0.0011761
0.0011926
0.00119983
0.00121281
0.00121532
0.0012308
0.0012255
0.00125029
0.00122971
0.00127316
0.00122542
0.00130112
0.00121024
0.00132778
0.00116116
0.00106439
0.00130046
0.000601256
0.00103364
0.00112832
0.00108857
0.00125119
0.00115505
0.00125142
0.00119755
0.00125433
0.00123242
0.00126698
0.0012639
0.00128723
0.00129355
0.00131158
0.00131732
0.00133163
0.00133201
0.00135003
0.00134043
0.00137106
0.0013419
0.00139682
0.00133325
0.00142932
0.00131137
0.00145339
0.00124515
0.00110469
0.00139451
0.000670379
0.00111271
0.00122432
0.00119089
0.00139945
0.0012754
0.00140168
0.00132475
0.0013977
0.00136231
0.00140495
0.00139507
0.00142225
0.00142547
0.00144533
0.00144902
0.00146497
0.00146243
0.00148363
0.00146838
0.00150638
0.0014661
0.00153556
0.00145179
0.00157297
0.00142101
0.00158931
0.00133277
0.00114074
0.00149284
0.000747339
0.00119165
0.00132134
0.00129806
0.00156184
0.00140708
0.00157172
0.00146594
0.00156021
0.00150742
0.0015608
0.00154191
0.0015742
0.00157304
0.0015954
0.0015963
0.0016143
0.00160782
0.00163306
0.0016105
0.00165787
0.0016033
0.00169103
0.00158167
0.00173342
0.00153918
0.00173405
0.00142301
0.00117231
0.00159449
0.000832694
0.00126929
0.00141811
0.00140882
0.00173749
0.00155037
0.00176373
0.00162215
0.00174425
0.00166904
0.00173669
0.00170593
0.00174492
0.00173778
0.00176361
0.00176051
0.00178115
0.00176946
0.00180035
0.00176807
0.00182728
0.00175446
0.00186507
0.00172343
0.00191185
0.00166576
0.00188529
0.00151463
0.0011993
0.00169834
0.000927329
0.00134436
0.0015131
0.00152161
0.00192444
0.00170531
0.00198003
0.00179451
0.00195249
0.0018486
0.00193498
0.00188873
0.0019366
0.00192149
0.00195172
0.00194317
0.00196762
0.00194907
0.00198705
0.00194231
0.00201662
0.00192058
0.0020596
0.00187738
0.00210955
0.00180043
0.00203969
0.00160628
0.00122198
0.00180327
0.00103246
0.00141667
0.00160508
0.00163485
0.0021199
0.00187144
0.0022233
0.00198405
0.00218832
0.00204774
0.00215848
0.0020921
0.00215162
0.00212608
0.00216197
0.00214628
0.00217557
0.00214825
0.0021953
0.00213471
0.00222806
0.00210257
0.00227669
0.00204384
0.00232775
0.00194269
0.00219305
0.00169646
0.00124064
0.00190796
0.00114895
0.00148265
0.0016908
0.00174669
0.00231954
0.00204798
0.00249525
0.002192
0.0024554
0.00226835
0.00241067
0.00231806
0.00239272
0.00235348
0.00239683
0.00237177
0.00240738
0.00236884
0.0024275
0.00234655
0.0024639
0.00230121
0.00251851
0.0022233
0.00256733
0.00209135
0.00233945
0.00178471
0.00125593
0.00201086
0.0012778
0.00154313
0.00176822
0.00185449
0.00251641
0.00223351
0.00279635
0.00241921
0.00275741
0.00251243
0.0026952
0.00256912
0.00266332
0.00260622
0.002659
0.00262211
0.0026656
0.00261269
0.00268592
0.00257933
0.00272642
0.00251751
0.00278723
0.00241605
0.00282777
0.00224303
0.00247244
0.00187051
0.00126789
0.00211038
0.00142029
0.00159821
0.00183894
0.00195709
0.00270097
0.00242576
0.00301224
0.00266562
0.00300831
0.00278201
0.00300742
0.00284782
0.00296719
0.00288695
0.0029512
0.00290017
0.00295312
0.00288194
0.00297342
0.00283457
0.00300848
0.0027525
0.00301041
0.00262172
0.0030163
0.00239731
0.00258805
0.00195046
0.00127682
0.00220482
0.0015776
0.00164729
0.00189906
0.00205529
0.0028874
0.00262294
0.00301098
0.0029307
0.00300669
0.00300537
0.00300567
0.0030052
0.00300536
0.00300514
0.00300527
0.00300516
0.0030055
0.0030053
0.00300598
0.00300542
0.00300688
0.00300561
0.00300896
0.00283978
0.00301522
0.00255304
0.00268889
0.00202423
0.00128324
0.00229308
0.00175113
0.00169099
0.00195196
0.00214743
0.00302663
0.00282223
0.00301009
0.00300435
0.00300545
0.00300379
0.0030043
0.0030037
0.00300396
0.0030037
0.00300388
0.00300376
0.00300413
0.00300388
0.00300464
0.00300396
0.0030056
0.00300409
0.00300783
0.00300447
0.00301444
0.00270862
0.00277026
0.00209105
0.00128749
0.00237436
0.0019421
0.00172954
0.00199783
0.00223236
0.00302606
0.00300553
0.00300947
0.00300299
0.00300451
0.00300251
0.00300323
0.0030025
0.00300286
0.00300255
0.00300279
0.00300264
0.00300305
0.00300274
0.00300357
0.00300276
0.00300457
0.00300282
0.00300695
0.00300315
0.0030139
0.00286141
0.00283223
0.00215037
0.00128997
0.00244818
0.00215147
0.00176318
0.00203668
0.00230949
0.00302561
0.00300432
0.00300907
0.00300189
0.00300381
0.00300148
0.0030024
0.00300153
0.00300199
0.00300164
0.00300192
0.00300174
0.00300217
0.0030018
0.0030027
0.00300178
0.00300375
0.00300178
0.00300627
0.00300206
0.00301354
0.0030026
0.0028769
0.0022022
0.00129105
0.00251429
0.00217793
0.00179211
0.00207123
0.00238282
0.00302527
0.00300334
0.00300884
0.00300099
0.00300329
0.00300064
0.00300176
0.00300075
0.00300131
0.0030009
0.00300123
0.003001
0.00300147
0.00300104
0.00300201
0.00300097
0.0030031
0.00300092
0.00300577
0.00300115
0.00301334
0.00300164
0.00290617
0.0022466
0.00129099
0.00257274
0.00217744
0.00181676
0.00210095
0.00244765
0.00302503
0.00300254
0.00300872
0.00300027
0.00300291
0.00299996
0.00300126
0.00300012
0.00300077
0.00300031
0.00300068
0.00300042
0.00300092
0.00300042
0.00300146
0.00300031
0.00300259
0.00300021
0.00300539
0.0030004
0.00301323
0.00300085
0.0029245
0.0022843
0.00129008
0.00262391
0.00217705
0.0018376
0.00212625
0.00250488
0.00302487
0.00300189
0.0030087
0.00299968
0.00300265
0.00299941
0.00300089
0.00299961
0.00300035
0.00299983
0.00300024
0.00299994
0.00300047
0.00299991
0.00300102
0.00299975
0.0030022
0.00299961
0.00300513
0.00299978
0.00301321
0.00300019
0.00293322
0.00231579
0.00128856
0.00266839
0.00217674
0.00185512
0.00214713
0.00255419
0.00302479
0.00300136
0.00300874
0.0029992
0.00300248
0.00299896
0.0030006
0.00299919
0.00300002
0.00299944
0.0029999
0.00299955
0.00300012
0.0029995
0.00300068
0.0029993
0.00300189
0.00299912
0.00300494
0.00299927
0.00301324
0.00299965
0.00293644
0.00234159
0.00128661
0.00270677
0.00217648
0.00186977
0.00216399
0.00259642
0.00302477
0.00300093
0.00300883
0.00299881
0.00300238
0.00299858
0.00300039
0.00299885
0.00299976
0.00299912
0.00299962
0.00299923
0.00299984
0.00299915
0.0030004
0.00299892
0.00300165
0.00299871
0.00300483
0.00299883
0.00301335
0.00299919
0.0029345
0.00236253
0.0012844
0.00273962
0.00217628
0.00188201
0.00217781
0.00263266
0.0030248
0.00300057
0.00300891
0.0029985
0.00300234
0.00299828
0.00300023
0.00299856
0.00299956
0.00299885
0.0029994
0.00299896
0.00299961
0.00299886
0.00300018
0.0029986
0.00300147
0.00299836
0.00300476
0.00299846
0.00301358
0.00299882
0.00292614
0.0023791
0.00128202
0.00276754
0.00217611
0.00189236
0.00218975
0.00266422
0.00302488
0.00300024
0.00300898
0.00299824
0.00300235
0.00299802
0.00300011
0.00299832
0.0029994
0.00299862
0.00299923
0.00299874
0.00299943
0.00299861
0.00300001
0.00299833
0.00300133
0.00299807
0.00300476
0.00299814
0.00301374
0.00299851
0.00291348
0.00239179
0.00127957
0.00279105
0.00217598
0.00190101
0.00219959
0.00269115
0.00302499
0.00299996
0.00300903
0.00299803
0.00300239
0.00299781
0.00300003
0.00299811
0.00299927
0.00299843
0.00299908
0.00299854
0.00299928
0.0029984
0.00299987
0.00299809
0.00300124
0.00299782
0.00300478
0.00299788
0.00301382
0.00299825
0.00289906
0.00240167
0.00127712
0.00281072
0.00217587
0.00190821
0.00220737
0.00271357
0.00302512
0.00299974
0.00300911
0.00299786
0.00300246
0.00299763
0.00299997
0.00299794
0.00299917
0.00299826
0.00299897
0.00299837
0.00299916
0.00299822
0.00299976
0.00299789
0.00300117
0.00299761
0.00300484
0.00299765
0.00301389
0.00299805
0.00288311
0.002409
0.00127469
0.00282713
0.00217579
0.00191418
0.00221354
0.00273199
0.00302527
0.00299955
0.00300919
0.00299773
0.00300254
0.00299748
0.00299994
0.00299779
0.0029991
0.00299811
0.00299887
0.00299823
0.00299906
0.00299805
0.00299967
0.00299772
0.00300112
0.00299743
0.00300492
0.00299747
0.00301396
0.00299788
0.00286655
0.00241423
0.0012723
0.00284079
0.00217572
0.0019191
0.00221838
0.00274707
0.00302542
0.00299939
0.00300929
0.00299762
0.00300264
0.00299735
0.00299992
0.00299765
0.00299904
0.00299798
0.0029988
0.00299809
0.00299898
0.00299791
0.0029996
0.00299757
0.00300109
0.00299727
0.00300501
0.00299731
0.00301405
0.00299774
0.00284974
0.00241776
0.00126998
0.00285208
0.00217567
0.00192318
0.00222207
0.00275923
0.00302557
0.00299926
0.0030094
0.00299753
0.00300274
0.00299724
0.00299991
0.00299754
0.00299899
0.00299786
0.00299873
0.00299797
0.00299891
0.00299778
0.00299955
0.00299743
0.00300108
0.00299714
0.0030051
0.00299719
0.00301415
0.00299762
0.00283328
0.00241995
0.00126774
0.00286133
0.00217562
0.00192654
0.00222467
0.00276867
0.00302572
0.00299914
0.0030095
0.00299745
0.00300288
0.00299716
0.00299992
0.00299743
0.00299895
0.00299776
0.00299868
0.00299786
0.00299885
0.00299767
0.0029995
0.00299732
0.00300109
0.00299702
0.00300525
0.00299708
0.00301428
0.00299752
0.00281745
0.00242099
0.0012656
0.00286888
0.00217559
0.00192931
0.00222645
0.00277596
0.00302587
0.00299905
0.00300961
0.00299738
0.00300299
0.00299708
0.00299995
0.00299734
0.00299893
0.00299766
0.00299864
0.00299776
0.00299881
0.00299756
0.00299948
0.00299721
0.0030011
0.00299692
0.00300542
0.002997
0.00301441
0.00299743
0.00280228
0.00242105
0.00126358
0.00287505
0.00217556
0.00193158
0.00222759
0.00278242
0.00302601
0.00299896
0.00300973
0.00299732
0.00300308
0.00299702
0.00299998
0.00299726
0.00299891
0.00299757
0.00299861
0.00299766
0.00299877
0.00299747
0.00299946
0.00299712
0.00300113
0.00299683
0.00300553
0.00299693
0.00301454
0.00299736
0.00278795
0.00242044
0.00126169
0.00288009
0.00217554
0.00193348
0.00222828
0.00278845
0.00302614
0.00299888
0.00300985
0.00299727
0.00300317
0.00299697
0.00300001
0.00299719
0.0029989
0.00299749
0.00299858
0.00299758
0.00299875
0.00299738
0.00299944
0.00299704
0.00300116
0.00299676
0.00300561
0.00299687
0.00301467
0.0029973
0.00277437
0.00241929
0.00125991
0.00288421
0.00217552
0.00193505
0.0022286
0.00279321
0.00302625
0.00299882
0.00300997
0.00299723
0.00300327
0.00299693
0.00300005
0.00299713
0.00299889
0.00299741
0.00299856
0.0029975
0.00299872
0.0029973
0.00299944
0.00299697
0.00300119
0.00299669
0.00300569
0.00299683
0.00301479
0.00299725
0.00276161
0.00241778
0.00125826
0.00288757
0.00217551
0.00193634
0.00222855
0.00279681
0.00302636
0.00299877
0.00301009
0.0029972
0.00300336
0.00299689
0.00300008
0.00299707
0.00299889
0.00299734
0.00299854
0.00299742
0.00299871
0.00299723
0.00299944
0.0029969
0.00300123
0.00299664
0.00300578
0.00299679
0.00301492
0.00299721
0.00274967
0.00241602
0.00125672
0.00289033
0.0021755
0.0019374
0.00222821
0.00279947
0.00302646
0.00299872
0.0030102
0.00299717
0.00300346
0.00299685
0.00300015
0.00299702
0.0029989
0.00299728
0.00299854
0.00299735
0.0029987
0.00299717
0.00299945
0.00299685
0.0030013
0.0029966
0.00300587
0.00299677
0.00301503
0.00299717
0.00273857
0.00241412
0.0012553
0.00289258
0.00217549
0.00193827
0.00222766
0.00280137
0.00302655
0.00299868
0.00301032
0.00299715
0.00300356
0.00299682
0.00300021
0.00299698
0.00299891
0.00299722
0.00299853
0.00299729
0.0029987
0.00299711
0.00299946
0.0029968
0.00300138
0.00299656
0.00300597
0.00299674
0.00301514
0.00299714
0.00272829
0.00241212
0.001254
0.00289441
0.00217548
0.00193899
0.00222699
0.00280267
0.00302663
0.00299865
0.00301043
0.00299713
0.00300367
0.0029968
0.00300027
0.00299694
0.00299893
0.00299717
0.00299853
0.00299724
0.0029987
0.00299706
0.00299948
0.00299676
0.00300145
0.00299653
0.00300606
0.00299673
0.00301524
0.00299712
0.00271881
0.00241011
0.0012528
0.00289591
0.00217548
0.00193958
0.00222625
0.00280357
0.0030267
0.00299862
0.00301053
0.00299712
0.00300377
0.00299677
0.00300032
0.00299691
0.00299895
0.00299712
0.00299854
0.00299719
0.0029987
0.00299701
0.0029995
0.00299672
0.0030015
0.00299651
0.00300615
0.00299671
0.00301533
0.00299709
0.00271011
0.00240812
0.0012517
0.00289712
0.00217548
0.00194007
0.00222552
0.00280414
0.00302676
0.00299859
0.00301062
0.00299711
0.00300386
0.00299675
0.00300037
0.00299688
0.00299897
0.00299708
0.00299855
0.00299714
0.00299871
0.00299697
0.00299952
0.00299669
0.00300156
0.00299649
0.00300624
0.0029967
0.00301542
0.00299708
0.00270217
0.00240619
0.0012507
0.00289812
0.00217547
0.0019405
0.00222484
0.00280445
0.00302681
0.00299857
0.00301071
0.0029971
0.00300395
0.00299673
0.00300043
0.00299686
0.002999
0.00299705
0.00299856
0.0029971
0.00299872
0.00299693
0.00299955
0.00299666
0.00300161
0.00299647
0.00300632
0.00299669
0.0030155
0.00299706
0.002695
0.00240439
0.0012498
0.00289895
0.00217547
0.00194086
0.00222426
0.00280463
0.00302686
0.00299855
0.00301078
0.00299709
0.00300404
0.00299672
0.00300048
0.00299683
0.00299904
0.00299701
0.00299857
0.00299706
0.00299874
0.0029969
0.00299959
0.00299664
0.00300167
0.00299646
0.00300639
0.00299669
0.00301556
0.00299704
0.00268862
0.00240275
0.001249
0.00289964
0.00217547
0.00194118
0.0022238
0.00280482
0.00302689
0.00299853
0.00301085
0.00299708
0.00300411
0.0029967
0.00300053
0.00299681
0.00299907
0.00299699
0.00299858
0.00299703
0.00299875
0.00299687
0.00299963
0.00299662
0.00300172
0.00299644
0.00300645
0.00299668
0.00301562
0.00299703
0.00268309
0.00240133
0.00124829
0.00290025
0.00217547
0.00194147
0.00222353
0.00280519
0.00302692
0.00299852
0.00301091
0.00299707
0.00300418
0.00299669
0.00300057
0.0029968
0.00299911
0.00299696
0.0029986
0.002997
0.00299877
0.00299685
0.00299967
0.0029966
0.00300176
0.00299643
0.00300651
0.00299668
0.00301567
0.00299702
0.00267841
0.00240019
0.00124768
0.00290078
0.00217547
0.00194174
0.00222351
0.00280595
0.00302694
0.00299851
0.00301095
0.00299707
0.00300423
0.00299668
0.00300061
0.00299678
0.00299913
0.00299694
0.00299863
0.00299698
0.00299879
0.00299683
0.00299969
0.00299658
0.0030018
0.00299642
0.00300655
0.00299667
0.00301571
0.00299701
0.0026747
0.00239937
0.00124718
0.00290129
0.00217547
0.001942
0.0022238
0.00280721
0.00302694
0.00299849
0.00301098
0.00299706
0.00300427
0.00299667
0.00300065
0.00299677
0.00299916
0.00299692
0.00299865
0.00299696
0.00299881
0.00299681
0.00299972
0.00299657
0.00300183
0.00299642
0.00300659
0.00299667
0.00301574
0.002997
0.00267195
0.00239893
0.00124678
0.00290179
0.00217547
0.00194228
0.00222446
0.00280918
0.00302693
0.00299848
0.00301099
0.00299705
0.0030043
0.00299666
0.00300067
0.00299675
0.00299917
0.00299691
0.00299866
0.00299694
0.00299883
0.00299679
0.00299974
0.00299656
0.00300186
0.00299641
0.00300661
0.00299666
0.00301575
0.00299699
0.00267029
0.00239893
0.0012465
0.00290231
0.00217547
0.00194257
0.0022256
0.00281194
0.00302691
0.00299847
0.00301098
0.00299704
0.00300431
0.00299666
0.00300068
0.00299674
0.00299918
0.00299689
0.00299867
0.00299692
0.00299884
0.00299678
0.00299975
0.00299655
0.00300187
0.0029964
0.00300661
0.00299666
0.00301575
0.00299699
0.00266974
0.00239943
0.00124633
0.00290289
0.00217547
0.0019429
0.00222727
0.00281575
0.00302686
0.00299846
0.00301095
0.00299703
0.0030043
0.00299665
0.00300067
0.00299673
0.00299918
0.00299688
0.00299867
0.00299691
0.00299884
0.00299677
0.00299974
0.00299654
0.00300186
0.0029964
0.0030066
0.00299665
0.00301574
0.00299698
0.00267052
0.00240053
0.00124629
0.00290358
0.00217547
0.00194325
0.00222965
0.00282075
0.0030268
0.00299845
0.0030109
0.00299702
0.00300426
0.00299664
0.00300066
0.00299673
0.00299917
0.00299688
0.00299866
0.00299691
0.00299883
0.00299676
0.00299973
0.00299653
0.00300184
0.00299639
0.00300656
0.00299664
0.00301571
0.00299698
0.00267256
0.00240227
0.00124637
0.00290436
0.00217547
0.00194367
0.00223263
0.002827
0.00302671
0.00299844
0.00301082
0.002997
0.0030042
0.00299663
0.00300062
0.00299672
0.00299914
0.00299687
0.00299864
0.0029969
0.0029988
0.00299676
0.0029997
0.00299653
0.0030018
0.00299638
0.00300651
0.00299663
0.00301565
0.00299697
0.00267625
0.00240479
0.0012466
0.00290532
0.00217547
0.00194413
0.00223667
0.00283503
0.00302658
0.00299843
0.00301071
0.00299698
0.0030041
0.00299662
0.00300056
0.00299672
0.00299911
0.00299687
0.00299861
0.0029969
0.00299877
0.00299676
0.00299966
0.00299652
0.00300174
0.00299637
0.00300642
0.00299661
0.00301558
0.00299697
0.00268123
0.00240797
0.00124694
0.00290642
0.00217547
0.00194465
0.00224112
0.00284394
0.00302644
0.00299842
0.00301058
0.00299696
0.00300398
0.00299661
0.00300048
0.00299672
0.00299905
0.00299687
0.00299856
0.0029969
0.00299873
0.00299676
0.0029996
0.00299652
0.00300166
0.00299636
0.00300631
0.0029966
0.00301548
0.00299696
0.0026883
0.00241216
0.00124748
0.00290775
0.00217547
0.00194527
0.00224705
0.00285556
0.00302624
0.00299841
0.0030104
0.00299693
0.00300381
0.0029966
0.00300039
0.00299672
0.00299899
0.00299688
0.00299852
0.00299691
0.00299867
0.00299676
0.00299953
0.00299652
0.00300155
0.00299635
0.00300617
0.00299658
0.00301536
0.00299696
0.00269613
0.00241667
0.00124806
0.00290916
0.00217547
0.00194585
0.0022526
0.00286641
0.00302605
0.00299839
0.00301023
0.00299691
0.00300364
0.0029966
0.00300027
0.00299672
0.00299891
0.00299689
0.00299845
0.00299692
0.00299861
0.00299677
0.00299945
0.00299652
0.00300144
0.00299634
0.00300601
0.00299655
0.00301521
0.00299696
0.00270656
0.00242251
0.00124887
0.00291083
0.00217547
0.00194661
0.00226012
0.00288128
0.00302578
0.00299838
0.00300996
0.00299687
0.00300339
0.00299659
0.00300014
0.00299673
0.00299884
0.0029969
0.00299839
0.00299693
0.00299853
0.00299678
0.00299935
0.00299653
0.00300131
0.00299633
0.00300583
0.00299653
0.00301506
0.00299695
0.00271589
0.00242748
0.00124957
0.00291235
0.00217547
0.00194709
0.00226546
0.00289137
0.00302559
0.00299837
0.00300982
0.00299685
0.00300323
0.00299659
0.00300003
0.00299674
0.00299875
0.00299692
0.00299832
0.00299695
0.00299846
0.00299679
0.00299926
0.00299653
0.00300116
0.00299633
0.00300562
0.00299651
0.00301488
0.00299695
0.00272879
0.00243443
0.00125058
0.00291407
0.00299836
0.00300948
0.00299682
0.00300291
0.00299658
0.00299986
0.00299676
0.00299866
0.00299695
0.00299824
0.00299698
0.00299837
0.00299682
0.00299915
0.00299654
0.00300104
0.00299632
0.00300546
0.00299649
0.00301476
0.00299696
0.00273661
0.00243815
0.00125119
0.00291519
0.00300946
0.00299681
0.00300285
0.00299659
0.00299981
0.00299677
0.00299861
0.00299697
0.0029982
0.002997
0.00299832
0.00299683
0.00299907
0.00299655
0.00300089
0.00299632
0.00300524
0.00299647
0.00301457
0.00299696
0.00274973
0.00244488
0.00125228
0.00291644
0.00300253
0.00299659
0.00299961
0.00299681
0.0029985
0.00299701
0.00299812
0.00299705
0.00299823
0.00299687
0.00299898
0.00299657
0.00300085
0.00299632
0.00300522
0.00299647
0.00301456
0.00299697
0.00275246
0.00244552
0.00125263
0.00291654
0.00299706
0.00299822
0.00299689
0.00299892
0.00299659
0.00300072
0.00299633
0.00300506
0.00299646
0.00301442
0.00299698
0.00276291
0.00245037
0.00125363
0.00291686
0.00299818
0.00299693
0.00299888
0.0029966
0.00300073
0.00299634
0.00300513
0.00299648
0.00301451
0.00299699
0.00276048
0.00244797
0.00125375
0.00291584
0.00299698
0.00299882
0.00299663
0.00300067
0.00299635
0.00300508
0.00299649
0.00301445
0.002997
0.00276809
0.00245079
0.00125465
0.00291529
0.00299884
0.00299665
0.00300069
0.00299637
0.00300514
0.00299651
0.00301452
0.00299702
0.00276456
0.00244752
0.0012548
0.00291364
0.00299639
0.00300509
0.00299653
0.00301446
0.00299704
0.00277201
0.00244969
0.00125577
0.00291268
0.000356143
0.00243651
0.00338563
0.00282138
0.00254302
0.00232981
0.0022255
0.00232824
0.00272579
0.00349618
0.00440941
0.00458909
0.00446634
0.00427979
0.00402512
0.00372755
0.00344354
0.00320962
0.00301051
0.00283042
0.00265771
0.00249221
0.00233412
0.00219156
0.0020613
0.00195427
0.00185902
0.0017703
0.00158441
0.00101932
0.000671338
0.00276582
0.003689
0.00419924
0.00434622
0.00356091
0.00312472
0.00315226
0.00374135
0.00479387
0.0058304
0.00649031
0.00666115
0.00652094
0.00627103
0.00601847
0.00579277
0.00556021
0.00531112
0.00502843
0.00473611
0.00443323
0.00413953
0.00386676
0.00357904
0.00338383
0.00306809
0.00311844
0.00272435
0.00298318
0.000585585
0.00276794
0.00395907
0.00441399
0.00402613
0.00316626
0.00292606
0.00335821
0.00449642
0.00618202
0.00737749
0.00726405
0.00670971
0.00625005
0.00592086
0.00567166
0.00545544
0.00524232
0.00503009
0.0048144
0.00459932
0.00438882
0.00417049
0.00398656
0.00375791
0.00364834
0.00338838
0.00340753
0.00304144
0.00514815
0.000558452
0.00288498
0.00415349
0.00454498
0.00348328
0.00294814
0.00317635
0.00416474
0.00554013
0.0062972
0.00621865
0.00599902
0.00585376
0.00577636
0.00572407
0.00566696
0.00559151
0.0054887
0.00536415
0.00521886
0.0050596
0.00489937
0.00471915
0.00459289
0.00439145
0.00439166
0.00413546
0.00451589
0.00383053
0.00449422
0.000570607
0.00311989
0.00424933
0.00386533
0.00302984
0.00296704
0.00362644
0.00470656
0.00542014
0.0056
0.00564044
0.0056967
0.0057511
0.0057922
0.00580426
0.00578287
0.00573057
0.00564756
0.00554242
0.0054202
0.00528398
0.0051533
0.00499278
0.00490382
0.00470603
0.0047465
0.00444161
0.00482181
0.00393634
0.00504325
0.00060241
0.0033987
0.00378144
0.00314506
0.00272164
0.0030892
0.00385114
0.00450686
0.00481956
0.00503765
0.00525463
0.00546092
0.00563564
0.0057614
0.00584515
0.00588567
0.0058896
0.00585967
0.00580356
0.00572723
0.00562701
0.00553826
0.00539917
0.0053625
0.00516521
0.00529088
0.00491952
0.00545612
0.00421333
0.00508652
0.000624259
0.00324765
0.00288664
0.00256568
0.00255646
0.00307371
0.00361301
0.00405673
0.00442639
0.00480716
0.00515743
0.00546609
0.00571052
0.00588417
0.00600315
0.00607245
0.00610025
0.00609296
0.00605633
0.00600377
0.00592125
0.00586262
0.0057342
0.00573702
0.00552129
0.0056973
0.0052338
0.00584097
0.00433358
0.00556128
0.00059991
0.00223384
0.00220536
0.00222372
0.00245629
0.00295418
0.00341211
0.00389627
0.00434773
0.00480288
0.00519388
0.00553813
0.00580412
0.00601387
0.00616633
0.00627363
0.00633904
0.00636953
0.00636778
0.0063509
0.00629443
0.00627186
0.00615358
0.00620628
0.00596801
0.0062236
0.0056384
0.00638113
0.00450172
0.00563225
0.000523601
0.00170919
0.0018937
0.00213155
0.00245925
0.00297094
0.00344059
0.00397307
0.00445072
0.00493266
0.0053388
0.00570647
0.0059929
0.00623679
0.00641483
0.00654944
0.00663935
0.0066941
0.00671377
0.00672223
0.0066811
0.00669105
0.00657172
0.00667018
0.00639477
0.0067232
0.00599494
0.00685183
0.00462725
0.00565177
0.000454812
0.00165439
0.00193854
0.00224284
0.0026384
0.00318211
0.0036591
0.00421222
0.00468298
0.00516993
0.00557141
0.00594727
0.00624625
0.0065087
0.00670742
0.0068671
0.00698368
0.00706671
0.00711212
0.00715077
0.00712767
0.00717463
0.0070527
0.00720576
0.00688162
0.00730095
0.00639358
0.00737515
0.0047669
0.00567554
0.000441565
0.00191255
0.00224963
0.00253749
0.00300275
0.00353818
0.00400946
0.00455965
0.00501022
0.00549491
0.00588753
0.00627131
0.00658225
0.00685843
0.00707727
0.00725721
0.00739454
0.0074994
0.00756357
0.00762746