/*--------------------------------*- C++ -*----------------------------------*\
  =========                 |
  \\      /  F ield         | OpenFOAM: The Open Source CFD Toolbox
   \\    /   O peration     | Website:  https://openfoam.org
    \\  /    A nd           | Version:  10
     \\/     M anipulation  |
\*---------------------------------------------------------------------------*/
FoamFile
{
    format      ascii;
    class       volScalarField;
    location    "0.1";
    object      omega_0;
}
// * * * * * * * * * * * * * * * * * * * * * * * * * * * * * * * * * * * * * //

dimensions      [0 0 -1 0 0 0 0];

internalField   nonuniform List<scalar> 
116798
(
89.7729
65.4249
68.0786
61.5334
57.4738
56.0553
56.4149
57.8064
59.426
60.8028
61.7916
62.4085
62.7416
62.875
62.8051
62.5507
62.1571
61.7221
61.3435
61.0727
60.9202
60.8858
60.9623
61.1587
61.4561
61.8853
62.3345
62.8949
62.9266
60.8451
81.1396
63.8963
54.2506
47.4521
43.2669
41.38
41.124
41.6561
42.3162
42.7757
42.9643
42.9548
42.8007
42.5332
42.1528
41.7874
41.5032
41.3036
41.1759
41.1113
41.1038
41.1539
41.2535
41.4088
41.5907
41.8229
41.9892
42.1834
41.8213
39.6678
71.3557
62.7349
55.9511
49.4339
45.6223
44.3777
44.475
44.8426
44.9026
44.5426
43.8845
43.0983
42.3162
41.6469
41.1213
40.7272
40.4372
40.2276
40.0852
40.0051
39.9802
40.0091
40.0767
40.1924
40.3131
40.4818
40.5491
40.6821
40.1901
38.3848
71.054
62.2626
57.871
51.7218
48.5011
47.4141
46.9386
46.2208
45.082
43.7456
42.5019
41.4809
40.6673
40.0468
39.5777
39.2226
38.956
38.7621
38.6289
38.5496
38.5122
38.517
38.5474
38.6205
38.681
38.7985
38.7982
38.9038
38.3214
36.8176
73.6631
61.4435
58.7728
53.6055
50.6208
48.8656
47.1539
45.1964
43.3385
41.8224
40.6456
39.7369
39.0473
38.5209
38.116
37.8041
37.5652
37.3865
37.2568
37.1711
37.1183
37.1026
37.1035
37.1446
37.1635
37.2458
37.1938
37.2893
36.7241
35.3776
75.2847
58.8834
57.3882
53.4087
50.3459
47.6995
45.1017
42.8689
41.1496
39.8705
38.8997
38.1523
37.5804
37.1339
36.7837
36.5093
36.2957
36.1325
36.0093
35.9234
35.8634
35.8366
35.8182
35.8382
35.8257
35.8848
35.7996
35.8929
35.3683
34.1177
73.6424
54.3373
53.5475
50.4644
47.47
44.6409
42.2485
40.4279
39.0924
38.0955
37.3269
36.7222
36.2505
35.8776
35.5815
35.3477
35.1636
35.0206
34.9086
34.8268
34.7635
34.7298
34.6967
34.7039
34.669
34.7185
34.61
34.7061
34.2546
33.044
68.1783
48.8612
48.4068
45.9465
43.5072
41.302
39.5657
38.2585
37.2801
36.5257
35.9307
35.4525
35.0674
34.7607
34.5139
34.3174
34.1613
34.0387
33.9395
33.8651
33.8027
33.7674
33.7264
33.7286
33.6787
33.726
33.6012
33.7016
33.3402
32.1373
60.5979
43.7654
43.3567
41.5011
39.9172
38.4651
37.3199
36.4185
35.7179
35.1581
34.7056
34.3337
34.0252
33.7772
33.5752
33.4136
33.2844
33.1819
33.0965
33.0312
32.9726
32.9394
32.8947
32.8958
32.838
32.8855
32.7539
32.8551
32.5973
31.3758
53.6878
39.6151
39.1112
38.022
37.1405
36.2335
35.4994
34.8872
34.3934
33.9851
33.647
33.363
33.1213
32.9224
32.7594
32.6287
32.5238
32.4401
32.3682
32.3127
32.2597
32.2307
32.1857
32.1886
32.1268
32.1764
32.045
32.1437
31.9962
30.7384
48.8133
36.4953
36.0014
35.5895
35.0657
34.5122
34.0414
33.6314
33.2867
32.9937
32.7444
32.5309
32.3451
32.1871
32.0575
31.9536
31.8701
31.8031
31.7437
31.6981
31.6513
31.6277
31.5843
31.5901
31.5278
31.5794
31.4546
31.547
31.511
30.2059
45.6519
34.326
33.9426
33.9027
33.5114
33.1935
32.8826
32.6141
32.3735
32.1667
31.9842
31.8261
31.685
31.5611
31.4592
31.3779
31.3125
31.2601
31.212
31.1755
31.1353
31.1171
31.0766
31.0858
31.0256
31.0782
30.965
31.0479
31.1188
29.7613
43.5674
32.8716
32.6032
32.6885
32.3441
32.1846
31.9662
31.7973
31.6273
31.4841
31.3508
31.2351
31.1286
31.033
30.9535
30.8908
30.8405
30.8003
30.762
30.7336
30.6995
30.6865
30.6497
30.6622
30.6057
30.6579
30.5599
30.6292
30.8001
29.3902
42.1372
31.8718
31.7246
31.7874
31.4668
31.4103
31.2438
31.1448
31.0219
30.9255
30.8277
30.744
30.6638
30.5911
30.5291
30.4815
30.4433
30.4129
30.3828
30.3613
30.3327
30.3245
30.2919
30.3074
30.2559
30.306
30.226
30.2776
30.5429
29.0806
41.1177
31.1586
31.1316
31.1068
30.8058
30.8129
30.6754
30.625
30.5331
30.4707
30.3984
30.3387
30.2781
30.2232
30.1749
30.139
30.1103
30.0879
30.0645
30.0486
30.0253
30.0213
29.9932
30.0109
29.9649
30.0116
29.9522
29.9836
30.336
28.8227
40.3684
30.6324
30.7084
30.5848
30.306
30.3491
30.2288
30.2112
30.1393
30.1013
30.0471
30.0053
29.9595
29.9186
29.8808
29.8541
29.8328
29.8165
29.7987
29.7876
29.769
29.7686
29.7447
29.7631
29.7237
29.7657
29.7288
29.7381
30.17
28.6084
39.8059
30.234
30.3912
30.1807
29.9279
29.9869
29.8782
29.882
29.8228
29.8019
29.7603
29.7318
29.6972
29.6672
29.6378
29.6182
29.6027
29.5914
29.5782
29.5709
29.5566
29.5584
29.5385
29.5562
29.5243
29.5606
29.5476
29.5336
30.0366
28.4305
39.3791
29.9269
30.1477
29.8659
29.6429
29.7026
29.6034
29.6194
29.5692
29.5598
29.5272
29.5085
29.4822
29.4605
29.4378
29.4238
29.4129
29.4053
29.3959
29.3916
29.3806
29.3838
29.3673
29.3839
29.3603
29.3898
29.4018
29.3636
29.9296
28.2829
39.0533
29.6875
29.9596
29.6193
29.4298
29.4782
29.3881
29.4099
29.3662
29.3649
29.3387
29.3269
29.3067
29.2914
29.2741
29.2643
29.2569
29.252
29.2456
29.2432
29.2351
29.2383
29.226
29.2408
29.226
29.2477
29.2855
29.2225
29.8436
28.1605
38.8034
29.4997
29.8129
29.425
29.2698
29.3005
29.2197
29.2425
29.2042
29.2078
29.1864
29.1797
29.1642
29.1535
29.1404
29.1337
29.1288
29.1259
29.1216
29.1202
29.1146
29.1181
29.1098
29.1222
29.1164
29.1298
29.1935
29.1056
29.7749
28.0588
38.6085
29.3514
29.6966
29.2711
29.1497
29.1591
29.0888
29.1087
29.0752
29.0812
29.0636
29.0603
29.0482
29.0409
29.031
29.0266
29.0236
29.0219
29.0195
29.019
29.0158
29.0188
29.0145
29.0238
29.0275
29.0321
29.1216
29.0088
29.72
27.9745
38.4556
29.2339
29.6044
29.1488
29.0597
29.0462
28.987
29.0017
28.9729
28.9794
28.9648
28.9636
28.9541
28.9492
28.942
28.9392
28.9376
28.9367
28.9359
28.9358
28.9348
28.9369
28.9366
28.9424
28.9558
28.9512
29.0662
28.9289
29.6764
27.9047
38.3354
29.1404
29.5317
29.0511
28.9926
28.9558
28.908
28.9163
28.892
28.8978
28.8857
28.8855
28.8782
28.8749
28.8698
28.8681
28.8677
28.8673
28.8678
28.8676
28.8686
28.8694
28.8731
28.8753
28.8985
28.8843
29.024
28.8631
29.642
27.847
38.2406
29.0655
29.4743
28.973
28.9432
28.8833
28.8468
28.8478
28.8283
28.8323
28.8227
28.8228
28.8172
28.815
28.8114
28.8104
28.8109
28.8107
28.8122
28.8116
28.8146
28.8139
28.8216
28.82
28.8529
28.8291
28.9925
28.809
29.615
27.7994
38.1657
29.0054
29.4289
28.9103
28.9073
28.825
28.7996
28.7929
28.7781
28.7799
28.7725
28.7724
28.7683
28.7667
28.7644
28.7637
28.7648
28.7647
28.7671
28.7659
28.7707
28.7684
28.7802
28.7747
28.817
28.7834
28.9694
28.7645
29.594
27.7601
38.1063
28.957
29.3932
28.8599
28.8814
28.7783
28.7635
28.7486
28.7386
28.738
28.7329
28.7321
28.7294
28.7279
28.7266
28.7261
28.7277
28.7273
28.7306
28.7287
28.7353
28.7313
28.7472
28.7375
28.789
28.7457
28.9529
28.7281
29.5779
27.7277
38.0593
28.9181
29.3653
28.8194
28.8635
28.7408
28.7361
28.7131
28.7077
28.7043
28.7014
28.6999
28.6984
28.6969
28.6963
28.6959
28.6979
28.6972
28.7012
28.6986
28.707
28.7012
28.7211
28.707
28.7671
28.7147
28.9413
28.6983
29.5658
27.701
38.0219
28.8865
29.3436
28.7868
28.852
28.7107
28.7153
28.6845
28.6833
28.6771
28.6763
28.674
28.6735
28.672
28.672
28.6715
28.6738
28.6728
28.6775
28.6742
28.6843
28.6766
28.7002
28.6818
28.75
28.6888
28.9338
28.6742
29.5568
27.6791
37.992
28.8608
29.3268
28.7604
28.8438
28.6866
28.6995
28.6614
28.6641
28.655
28.6561
28.6529
28.6534
28.6518
28.6524
28.6517
28.6543
28.6531
28.6585
28.6543
28.666
28.6564
28.6835
28.6609
28.7367
28.6673
28.9294
28.6546
29.5504
27.6611
37.9682
28.8397
29.3138
28.7384
28.8346
28.667
28.6878
28.6427
28.6492
28.6371
28.6401
28.6358
28.6373
28.6355
28.6365
28.6358
28.6387
28.637
28.6431
28.638
28.6513
28.6396
28.6701
28.6434
28.7266
28.6493
28.9257
28.6386
29.5461
27.6463
37.9492
28.8224
29.3035
28.7199
28.8275
28.6508
28.6795
28.6274
28.6379
28.6227
28.6276
28.6222
28.6245
28.6224
28.6239
28.623
28.6262
28.6241
28.6308
28.6247
28.6395
28.6256
28.6596
28.6288
28.7192
28.6343
28.9227
28.6257
29.5435
27.6342
37.9341
28.8081
29.2953
28.7047
28.822
28.6375
28.6737
28.615
28.6292
28.6111
28.6178
28.6112
28.6145
28.6119
28.6139
28.6127
28.6163
28.6137
28.621
28.6138
28.63
28.6141
28.6515
28.6167
28.714
28.6217
28.9208
28.6152
29.5422
27.6242
37.9217
28.7963
29.2889
28.6922
28.8178
28.6266
28.6698
28.605
28.6227
28.6017
28.6102
28.6024
28.6066
28.6036
28.606
28.6045
28.6083
28.6052
28.6131
28.6048
28.6225
28.6046
28.6452
28.6067
28.7105
28.6112
28.9198
28.6068
29.5418
27.616
37.9115
28.7865
29.283
28.6819
28.8146
28.6177
28.6676
28.5968
28.6179
28.5941
28.6043
28.5954
28.6003
28.5969
28.5996
28.5979
28.6019
28.5982
28.6067
28.5974
28.6165
28.5967
28.6404
28.5984
28.7085
28.6025
28.9197
28.6001
29.5422
27.6092
37.9033
28.7784
29.2781
28.6733
28.8124
28.6105
28.6663
28.5902
28.6144
28.5879
28.5998
28.5896
28.5954
28.5915
28.5946
28.5925
28.5968
28.5926
28.6017
28.5913
28.6118
28.5902
28.6369
28.5916
28.7073
28.5952
28.9197
28.5946
29.5432
27.6037
37.8968
28.7717
29.2741
28.6662
28.8109
28.6045
28.666
28.5848
28.612
28.5828
28.5963
28.585
28.5915
28.5871
28.5906
28.5881
28.5927
28.5879
28.5976
28.5863
28.6081
28.5847
28.6344
28.5859
28.7069
28.5892
28.9202
28.5903
29.5445
27.5991
37.8915
28.766
29.2708
28.6604
28.81
28.5998
28.6661
28.5805
28.6103
28.5787
28.5936
28.5812
28.5885
28.5836
28.5875
28.5846
28.5894
28.5842
28.5944
28.5822
28.6052
28.5803
28.6325
28.5812
28.707
28.5843
28.9212
28.5868
29.5462
27.5954
37.8872
28.7613
29.2682
28.6555
28.8098
28.5959
28.6669
28.5769
28.6093
28.5754
28.5916
28.5781
28.5861
28.5807
28.5849
28.5817
28.5868
28.581
28.5919
28.5787
28.603
28.5764
28.6314
28.5772
28.7079
28.5801
28.9224
28.5839
29.548
27.5923
37.8838
28.7573
29.2661
28.6514
28.81
28.5925
28.6675
28.5741
28.6089
28.5726
28.5901
28.5755
28.5843
28.5783
28.5829
28.5793
28.5847
28.5783
28.5898
28.5757
28.6013
28.5733
28.6307
28.5738
28.7098
28.5767
28.9241
28.5817
29.5499
27.5898
37.881
28.754
29.2645
28.648
28.8107
28.5896
28.668
28.5718
28.6089
28.5702
28.589
28.5732
28.5828
28.5762
28.5813
28.5772
28.583
28.5761
28.5882
28.5732
28.6
28.5706
28.6306
28.5709
28.7112
28.5738
28.9261
28.58
29.5519
27.5878
37.8788
28.7511
29.2632
28.6451
28.8116
28.5871
28.6684
28.5699
28.6092
28.5683
28.5882
28.5714
28.5816
28.5744
28.5799
28.5755
28.5816
28.5741
28.5869
28.5711
28.5991
28.5683
28.6307
28.5684
28.7118
28.5715
28.928
28.5786
29.5539
27.5861
37.877
28.7487
29.2623
28.6426
28.8128
28.585
28.6691
28.5684
28.6097
28.5666
28.5877
28.5698
28.5806
28.5729
28.5789
28.5739
28.5805
28.5724
28.5858
28.5693
28.5984
28.5663
28.6312
28.5664
28.7124
28.5697
28.9299
28.5775
29.5559
27.5847
37.8756
28.7467
29.2616
28.6406
28.8141
28.5833
28.6698
28.5671
28.6104
28.5652
28.5873
28.5684
28.5799
28.5716
28.578
28.5726
28.5796
28.5709
28.585
28.5677
28.5979
28.5647
28.6318
28.5647
28.713
28.5681
28.9318
28.5766
29.5578
27.5835
37.8744
28.7449
29.2611
28.6388
28.8155
28.5819
28.6707
28.5661
28.6112
28.5641
28.5871
28.5671
28.5793
28.5703
28.5772
28.5714
28.5788
28.5696
28.5844
28.5663
28.5976
28.5633
28.6325
28.5633
28.7138
28.5669
28.9337
28.5759
29.5597
27.5826
37.8735
28.7434
29.2608
28.6374
28.8168
28.5807
28.6716
28.5653
28.612
28.5631
28.587
28.566
28.5788
28.5692
28.5766
28.5703
28.5782
28.5684
28.5838
28.565
28.5975
28.5621
28.6333
28.5621
28.7147
28.5658
28.9354
28.5754
29.5616
27.5819
37.8727
28.7421
29.2606
28.6361
28.8182
28.5797
28.6726
28.5646
28.6132
28.5623
28.5871
28.5651
28.5785
28.5682
28.5761
28.5692
28.5776
28.5673
28.5834
28.5639
28.5975
28.561
28.6346
28.5612
28.7158
28.5649
28.9371
28.575
29.5633
27.5812
37.8722
28.741
29.2605
28.6351
28.8195
28.5788
28.6735
28.564
28.6142
28.5616
28.5872
28.5642
28.5782
28.5673
28.5757
28.5683
28.5772
28.5664
28.5831
28.563
28.5976
28.5601
28.6361
28.5604
28.7169
28.5641
28.9388
28.5747
29.5649
27.5807
37.8717
28.7401
29.2605
28.6342
28.8208
28.578
28.6746
28.5634
28.615
28.561
28.5875
28.5635
28.578
28.5665
28.5754
28.5674
28.5768
28.5655
28.5829
28.5621
28.5977
28.5592
28.637
28.5598
28.7181
28.5634
28.9403
28.5745
29.5665
27.5803
37.8713
28.7393
29.2606
28.6334
28.822
28.5773
28.6756
28.563
28.6158
28.5606
28.5877
28.5628
28.5779
28.5657
28.5751
28.5666
28.5766
28.5647
28.5828
28.5613
28.598
28.5585
28.6377
28.5593
28.7192
28.5629
28.9417
28.5743
29.5679
27.5799
37.871
28.7386
29.2607
28.6328
28.823
28.5767
28.6767
28.5626
28.6166
28.5601
28.588
28.5622
28.5778
28.565
28.5749
28.5658
28.5763
28.5639
28.5827
28.5607
28.5983
28.558
28.6384
28.5589
28.7204
28.5624
28.943
28.5742
29.5692
27.5797
37.8708
28.7379
29.2609
28.6322
28.824
28.5762
28.6777
28.5623
28.6174
28.5598
28.5883
28.5617
28.5778
28.5643
28.5747
28.5651
28.5762
28.5633
28.5826
28.5601
28.5986
28.5575
28.6392
28.5585
28.7214
28.5621
28.9443
28.5741
29.5704
27.5794
37.8706
28.7374
29.261
28.6317
28.8249
28.5758
28.6788
28.562
28.6183
28.5595
28.5888
28.5612
28.5778
28.5637
28.5746
28.5645
28.5761
28.5627
28.5827
28.5596
28.5991
28.5571
28.64
28.5583
28.7225
28.5617
28.9454
28.574
29.5716
27.5792
37.8705
28.737
29.2612
28.6313
28.8257
28.5755
28.6798
28.5618
28.6192
28.5592
28.5894
28.5608
28.5779
28.5632
28.5746
28.5639
28.576
28.5621
28.5828
28.5591
28.5998
28.5567
28.6409
28.5581
28.7234
28.5614
28.9464
28.574
29.5726
27.5791
37.8704
28.7366
29.2613
28.6309
28.8264
28.5752
28.6808
28.5617
28.6201
28.5589
28.5899
28.5605
28.578
28.5627
28.5745
28.5634
28.576
28.5616
28.5829
28.5587
28.6004
28.5565
28.6417
28.5579
28.7243
28.5612
28.9474
28.574
29.5735
27.5789
37.8703
28.7362
29.2615
28.6306
28.827
28.5749
28.6817
28.5615
28.621
28.5587
28.5903
28.5602
28.5782
28.5623
28.5746
28.5629
28.576
28.5612
28.5831
28.5584
28.6009
28.5562
28.6425
28.5578
28.7252
28.561
28.9483
28.574
29.5743
27.5788
37.8703
28.7359
29.2616
28.6303
28.8276
28.5746
28.6825
28.5614
28.6219
28.5585
28.5908
28.5599
28.5783
28.5619
28.5746
28.5624
28.5761
28.5608
28.5832
28.5581
28.6014
28.556
28.6432
28.5577
28.7259
28.5608
28.949
28.574
29.5751
27.5787
37.8702
28.7357
29.2617
28.6301
28.8281
28.5744
28.6832
28.5613
28.6227
28.5583
28.5912
28.5597
28.5786
28.5615
28.5747
28.562
28.5762
28.5605
28.5835
28.5578
28.6019
28.5559
28.6439
28.5576
28.7266
28.5607
28.9497
28.574
29.5758
27.5786
37.8702
28.7354
29.2618
28.6299
28.8284
28.5743
28.6839
28.5613
28.6234
28.5582
28.5917
28.5595
28.5789
28.5612
28.5748
28.5617
28.5763
28.5601
28.5839
28.5576
28.6023
28.5557
28.6446
28.5576
28.7272
28.5605
28.9503
28.574
29.5764
27.5785
37.8702
28.7352
29.2619
28.6297
28.8288
28.5741
28.6845
28.5612
28.6241
28.5581
28.5921
28.5593
28.5792
28.561
28.5749
28.5614
28.5764
28.5599
28.5842
28.5574
28.6028
28.5556
28.6452
28.5575
28.7277
28.5604
28.9509
28.574
29.5769
27.5785
37.8701
28.7351
29.2619
28.6295
28.829
28.574
28.685
28.5611
28.6246
28.558
28.5925
28.5591
28.5795
28.5607
28.575
28.5611
28.5765
28.5596
28.5845
28.5572
28.6032
28.5555
28.6457
28.5575
28.7282
28.5603
28.9513
28.574
29.5774
27.5784
37.8701
28.7349
29.2619
28.6293
28.8292
28.5739
28.6854
28.5611
28.6251
28.5579
28.5929
28.5589
28.5797
28.5605
28.5752
28.5609
28.5767
28.5594
28.5847
28.5571
28.6035
28.5554
28.6461
28.5574
28.7285
28.5602
28.9517
28.574
29.5777
27.5784
37.8701
28.7348
29.2618
28.6292
28.8292
28.5738
28.6856
28.561
28.6255
28.5578
28.5932
28.5588
28.5799
28.5604
28.5754
28.5607
28.5769
28.5593
28.5849
28.557
28.6038
28.5554
28.6464
28.5574
28.7287
28.5601
28.9519
28.574
29.578
27.5783
37.8701
28.7347
29.2616
28.6291
28.8291
28.5737
28.6857
28.5609
28.6257
28.5577
28.5934
28.5587
28.5801
28.5602
28.5755
28.5605
28.577
28.5591
28.5851
28.5569
28.604
28.5553
28.6465
28.5573
28.7289
28.5601
28.9521
28.574
29.5783
27.5783
37.8701
28.7346
29.2614
28.6289
28.8289
28.5736
28.6857
28.5608
28.6258
28.5576
28.5935
28.5586
28.5802
28.5601
28.5756
28.5604
28.5771
28.559
28.5852
28.5568
28.6041
28.5552
28.6466
28.5573
28.7289
28.56
28.9521
28.574
29.5784
27.5783
37.8701
28.7346
29.261
28.6288
28.8285
28.5735
28.6854
28.5607
28.6257
28.5575
28.5934
28.5585
28.5801
28.56
28.5756
28.5603
28.5771
28.5589
28.5852
28.5567
28.6041
28.5552
28.6465
28.5572
28.7288
28.56
28.952
28.574
29.5785
27.5782
37.8701
28.7346
29.2605
28.6287
28.8279
28.5734
28.685
28.5606
28.6254
28.5575
28.5933
28.5584
28.5801
28.5599
28.5755
28.5602
28.577
28.5588
28.5851
28.5566
28.6039
28.5551
28.6462
28.5571
28.7285
28.5599
28.9518
28.574
29.5785
27.5782
37.8701
28.7346
29.2599
28.6285
28.8271
28.5733
28.6843
28.5605
28.6249
28.5574
28.5929
28.5584
28.5798
28.5599
28.5754
28.5602
28.5768
28.5588
28.5848
28.5566
28.6035
28.5551
28.6457
28.557
28.7281
28.5599
28.9513
28.574
29.5784
27.5782
37.8701
28.7346
29.259
28.6284
28.8261
28.5732
28.6834
28.5603
28.6241
28.5573
28.5925
28.5584
28.5795
28.5599
28.5751
28.5602
28.5766
28.5588
28.5845
28.5565
28.603
28.555
28.645
28.5569
28.7274
28.5598
28.9508
28.574
29.5782
27.5781
37.8701
28.7346
29.258
28.6282
28.8248
28.5731
28.6822
28.5601
28.623
28.5572
28.5918
28.5584
28.5791
28.5599
28.5747
28.5602
28.5762
28.5588
28.584
28.5565
28.6023
28.5549
28.644
28.5568
28.7265
28.5598
28.9499
28.574
29.5778
27.5781
37.8701
28.7347
29.2568
28.628
28.823
28.573
28.6806
28.5599
28.6215
28.5571
28.591
28.5584
28.5786
28.56
28.5743
28.5602
28.5757
28.5588
28.5834
28.5565
28.6014
28.5548
28.6428
28.5566
28.7255
28.5598
28.949
28.5739
29.5774
27.578
37.8701
28.7348
29.2554
28.6278
28.8213
28.5729
28.6791
28.5597
28.62
28.5571
28.59
28.5584
28.5779
28.5601
28.5738
28.5604
28.5751
28.5589
28.5826
28.5565
28.6004
28.5547
28.6414
28.5564
28.7242
28.5598
28.9478
28.5739
29.5769
27.578
37.8701
28.735
29.2538
28.6277
28.819
28.5728
28.6768
28.5594
28.6179
28.557
28.5889
28.5585
28.5772
28.5602
28.5732
28.5605
28.5745
28.559
28.5818
28.5566
28.5993
28.5547
28.6398
28.5562
28.7229
28.5597
28.9467
28.5739
29.5763
27.578
37.8702
28.7351
29.2524
28.6275
28.8173
28.5727
28.6755
28.5592
28.6164
28.557
28.5879
28.5586
28.5765
28.5604
28.5726
28.5607
28.5739
28.5592
28.581
28.5566
28.598
28.5546
28.638
28.556
28.7213
28.5597
28.9452
28.5738
29.5757
27.5779
28.5726
28.6725
28.5589
28.6137
28.557
28.5864
28.5588
28.5757
28.5606
28.572
28.561
28.5731
28.5594
28.5801
28.5567
28.597
28.5546
28.6365
28.5558
28.7202
28.5598
28.9443
28.5738
29.5751
27.5779
28.6723
28.5589
28.6131
28.557
28.586
28.5589
28.5753
28.5608
28.5716
28.5611
28.5727
28.5595
28.5794
28.5569
28.5957
28.5546
28.6347
28.5556
28.7186
28.5598
28.9429
28.5737
29.5744
27.5779
28.6103
28.5571
28.5843
28.5593
28.5743
28.5612
28.5709
28.5616
28.5719
28.5599
28.5785
28.557
28.5954
28.5546
28.6344
28.5557
28.7185
28.5599
28.9427
28.5737
29.5741
27.5779
28.5617
28.5719
28.56
28.578
28.5572
28.5942
28.5547
28.633
28.5556
28.7173
28.56
28.9417
28.5737
29.5735
27.5779
28.5715
28.5604
28.5777
28.5573
28.5943
28.5547
28.6337
28.5558
28.7181
28.5601
28.9422
28.5737
29.5733
27.578
28.5609
28.5772
28.5576
28.5937
28.5549
28.6332
28.5559
28.7175
28.5602
28.9416
28.5737
29.5728
27.578
28.5774
28.5578
28.5939
28.5551
28.6337
28.5561
28.7182
28.5603
28.9421
28.5737
29.5725
27.5781
28.5552
28.6333
28.5562
28.7176
28.5605
28.9415
28.5737
29.5719
27.5782
70.0783
81.0959
70.9909
58.2847
47.865
40.633
34.4318
29.4286
25.627
22.814
20.332
18.3696
17.1614
15.9135
14.9699
14.6665
15.0458
15.8612
16.7488
17.5305
18.2114
18.8669
19.5852
20.4126
21.4304
22.6732
24.4211
27.0797
31.7648
46.6623
71.1319
79.1769
68.4555
53.2441
42.709
34.2208
26.9947
21.3604
17.3899
14.8079
13.1911
12.234
11.6687
11.332
11.1455
11.0666
11.0713
11.1392
11.2551
11.3999
11.5855
11.7926
12.0823
12.3898
12.9194
13.4826
14.9891
17.1752
21.1028
24.4846
68.4089
75.5959
63.5077
49.0131
38.1373
29.1628
22.156
17.3032
14.3125
12.6233
11.7175
11.2589
11.0214
10.8963
10.8344
10.8181
10.8405
10.897
10.978
11.0828
11.2031
11.3582
11.5355
11.7809
12.11
12.6441
13.8796
16.1132
18.627
20.9508
67.1523
72.3264
59.4322
44.7643
33.3402
24.4637
18.3673
14.714
12.7774
11.8237
11.3507
11.1011
10.9545
10.8602
10.7981
10.7601
10.7474
10.7583
10.7895
10.8395
10.9112
11.0008
11.1296
11.2755
11.5808
11.9833
13.4251
15.2528
17.8015
19.854
67.2713
69.8326
55.1531
40.0019
28.6036
20.6637
15.9074
13.3906
12.1527
11.5332
11.1926
10.9862
10.8503
10.7581
10.6965
10.6593
10.6439
10.6478
10.6675
10.704
10.7527
10.8221
10.911
11.0385
11.2937
11.7691
13.1989
15.0343
17.1087
19.3282
67.5395
65.7916
49.3167
34.512
24.2547
17.8931
14.4492
12.7133
11.8366
11.3587
11.072
10.8877
10.7635
10.6775
10.6179
10.579
10.5578
10.5521
10.5592
10.5787
10.6098
10.6526
10.7267
10.8209
11.1013
11.5883
13.1749
14.6744
16.7218
18.8895
66.2964
57.8779
41.435
28.6506
20.5689
15.9327
13.5006
12.24
11.5636
11.1701
10.9244
10.76
10.6479
10.5689
10.5137
10.4773
10.4564
10.4486
10.4514
10.4637
10.4851
10.5166
10.576
10.669
10.9561
11.5268
13.1218
14.3625
16.2839
18.5759
61.5771
46.5326
32.7971
23.3873
17.7016
14.487
12.7535
11.8098
11.2848
10.9684
10.7667
10.6286
10.5329
10.4642
10.4154
10.3816
10.3603
10.3496
10.3473
10.3525
10.3654
10.3873
10.4436
10.5317
10.8543
11.4731
13.0573
14.0008
15.8291
18.2856
53.0775
35.389
25.5002
19.4097
15.6006
13.3828
12.1285
11.4172
11.0175
10.7698
10.6092
10.4957
10.4152
10.3564
10.3138
10.284
10.2642
10.2532
10.2487
10.25
10.2585
10.2764
10.3306
10.428
10.779
11.4479
12.8969
13.7233
15.4438
18.0186
44.3297
27.5677
20.4826
16.7261
14.1424
12.5614
11.6196
11.077
10.774
10.5833
10.4589
10.3684
10.3028
10.2543
10.2184
10.1926
10.1747
10.1636
10.1576
10.156
10.1626
10.1777
10.2352
10.3414
10.731
11.3942
12.6589
13.4947
15.1075
17.7788
38.7433
23.0198
17.3707
15.0441
13.1847
11.9753
11.2214
10.7962
10.5625
10.4163
10.3213
10.2504
10.1979
10.1582
10.1284
10.1067
10.0911
10.0808
10.0745
10.0721
10.0781
10.0935
10.1555
10.2767
10.7011
11.3063
12.3664
13.3318
14.8188
17.6446
35.8046
20.4153
15.4798
14.0384
12.5726
11.5625
10.9181
10.5706
10.3842
10.2709
10.1987
10.1438
10.1028
10.0709
10.0468
10.0288
10.0155
10.0063
10.0002
9.99805
10.0044
10.021
10.0901
10.227
10.6882
11.1852
12.1023
13.2173
14.568
17.6129
34.0802
18.7076
14.2743
13.435
12.1572
11.2613
10.6859
10.3908
10.237
10.1471
10.092
10.0498
10.0182
9.99274
9.97352
9.9589
9.94784
9.93989
9.93441
9.93327
9.94086
9.96001
10.0365
10.1916
10.6852
11.0373
11.875
13.1422
14.3512
17.6596
32.9353
17.4549
13.4098
13.0493
11.8404
11.0355
10.5105
10.2505
10.1174
10.044
10.001
9.96853
9.9444
9.92428
9.9091
9.89735
9.88832
9.88163
9.87741
9.87733
9.88681
9.90938
9.99416
10.1681
10.6777
10.899
11.6827
13.0922
14.1565
17.7669
32.1261
16.6209
12.6789
12.7781
11.5709
10.87
10.3827
10.143
10.0206
9.95864
9.92449
9.89921
9.88087
9.86514
9.85329
9.84405
9.83683
9.83171
9.82875
9.82998
9.84113
9.86767
9.96154
10.1552
10.6257
10.7754
11.5204
13.061
13.9806
17.917
31.5337
16.0239
12.125
12.5615
11.3211
10.7551
10.295
10.064
9.94478
9.88985
9.86092
9.84084
9.82704
9.81512
9.80608
9.79898
9.7934
9.7897
9.78772
9.79037
9.80347
9.83502
9.93903
10.1498
10.5246
10.6702
11.3811
13.0422
13.8207
18.0956
31.0899
15.5668
11.7344
12.3523
11.0749
10.6834
10.2383
10.0062
9.88527
9.83466
9.80881
9.79248
9.78203
9.77299
9.76608
9.76071
9.75642
9.75397
9.75279
9.75703
9.77217
9.80881
9.92277
10.1364
10.4228
10.5882
11.2615
13.0325
13.6749
18.2877
30.7522
15.2037
11.4601
12.1368
10.8224
10.6181
10.1955
9.96403
9.84082
9.7923
9.76693
9.75309
9.74478
9.73795
9.73273
9.72878
9.72552
9.72418
9.72392
9.7298
9.74749
9.79068
9.91303
10.087
10.3273
10.5255
11.1589
13.0292
13.5399
18.4782
30.4923
14.9126
11.2677
11.9708
10.6046
10.5443
10.1634
9.93327
9.80567
9.7584
9.73343
9.72159
9.71439
9.70905
9.705
9.70209
9.69958
9.69917
9.69987
9.70757
9.72748
9.77564
9.9068
10.0253
10.2451
10.4804
11.0708
13.0311
13.4157
18.6613
30.2906
14.6784
11.1296
11.8481
10.439
10.4589
10.119
9.9094
9.77938
9.73188
9.70671
9.69616
9.6897
9.68555
9.68239
9.68031
9.6785
9.67903
9.68053
9.69004
9.71145
9.76587
9.90525
9.97276
10.1751
10.4496
10.995
13.0366
13.3049
18.8297
30.1331
14.4884
11.0286
11.7567
10.3139
10.3606
10.0541
9.8909
9.75974
9.71163
9.68481
9.67538
9.6696
9.66661
9.66413
9.66271
9.66133
9.66247
9.66425
9.67509
9.69876
9.75925
9.88924
9.92796
10.1156
10.4303
10.9286
13.0437
13.2061
18.9823
30.0093
14.3312
10.9529
11.6882
10.2193
10.2732
9.97604
9.88086
9.74727
9.69711
9.66795
9.65906
9.65317
9.65079
9.64887
9.64798
9.64688
9.64863
9.6511
9.66369
9.68978
9.75692
9.85342
9.88986
10.0642
10.4205
10.8704
13.0521
13.1171
19.1279
29.9117
14.1995
10.8954
11.6371
10.148
10.2049
9.90868
9.87732
9.73946
9.68677
9.65488
9.6462
9.63997
9.63814
9.63655
9.63606
9.63516
9.63747
9.6405
9.65482
9.68327
9.7553
9.82104
9.85949
10.0209
10.4185
10.82
13.0613
13.0368
19.2673
29.8344
14.0874
10.8501
11.5998
10.0946
10.1524
9.85528
9.85698
9.73382
9.67978
9.64504
9.63623
9.62952
9.62802
9.62653
9.62636
9.6257
9.62863
9.63219
9.64835
9.67917
9.7371
9.79196
9.83614
9.98427
10.4226
10.7763
13.0712
12.9645
19.4004
29.7729
13.9907
10.8133
11.5728
10.055
10.1122
9.81316
9.82422
9.73059
9.67553
9.63785
9.62868
9.62128
9.62006
9.61861
9.61874
9.61819
9.62165
9.62574
9.64374
9.67718
9.7191
9.76694
9.8186
9.95314
10.4311
10.7379
13.0809
12.8991
19.5277
29.7239
13.9057
10.783
11.5524
10.0251
10.082
9.78037
9.79604
9.71259
9.67266
9.63272
9.62305
9.61494
9.61388
9.61236
9.61275
9.6123
9.61631
9.62097
9.64099
9.67644
9.7039
9.74563
9.80589
9.92716
10.4426
10.7032
13.0909
12.841
19.6515
29.6847
13.8299
10.7569
11.5374
10.0029
10.0598
9.75497
9.77375
9.69231
9.67209
9.62919
9.61921
9.6101
9.60924
9.60758
9.60824
9.60784
9.61246
9.61755
9.63979
9.66767
9.69108
9.72752
9.79729
9.90541
10.4578
10.6727
13.1009
12.7887
19.7717
29.6534
13.7661
10.7343
11.5273
9.98754
10.0437
9.73563
9.75589
9.67527
9.67267
9.62697
9.61674
9.6065
9.60586
9.60399
9.60492
9.6045
9.60977
9.61514
9.63961
9.65788
9.68033
9.712
9.79176
9.88738
10.4768
10.6457
13.1109
12.7418
19.8801
29.6284
13.7133
10.7159
11.5116
9.97544
10.0329
9.72057
9.74207
9.66149
9.66461
9.62549
9.61543
9.6039
9.60347
9.60132
9.60252
9.60203
9.60795
9.61364
9.63779
9.64904
9.67179
9.69903
9.78912
9.87192
10.4961
10.6218
13.121
12.7003
19.9839
29.6083
13.669
10.7013
11.4901
9.96506
10.0268
9.70909
9.73117
9.65019
9.65652
9.62482
9.61499
9.60207
9.60186
9.59939
9.60084
9.60026
9.60687
9.61279
9.63322
9.64097
9.66476
9.68826
9.78865
9.85934
10.5112
10.599
13.1308
12.6642
20.0837
29.5922
13.631
10.689
11.4713
9.95763
10.0237
9.7002
9.72274
9.64125
9.64969
9.62164
9.61515
9.60083
9.60084
9.59801
9.59972
9.59901
9.60625
9.61246
9.62877
9.63409
9.6596
9.67932
9.7899
9.84881
10.5233
10.5777
13.14
12.6326
20.1787
29.5793
13.5977
10.6785
11.4564
9.9527
10.0226
9.69359
9.71615
9.63406
9.644
9.61721
9.61566
9.60007
9.60024
9.59701
9.59894
9.59813
9.60598
9.61112
9.625
9.62821
9.6557
9.67189
9.79256
9.83995
10.5348
10.5585
13.1489
12.6045
20.2691
29.5689
13.5681
10.6695
11.4444
9.94892
10.0233
9.68868
9.71109
9.62842
9.63937
9.61311
9.61479
9.5996
9.59991
9.59628
9.59846
9.59754
9.60608
9.60872
9.62178
9.62319
9.65294
9.66573
9.7962
9.83253
10.5452
10.5413
13.1576
12.5796
20.3545
29.5606
13.543
10.6638
11.4289
9.9445
10.024
9.68507
9.70723
9.62402
9.63575
9.6096
9.6129
9.59938
9.59983
9.59576
9.59821
9.59719
9.60602
9.60633
9.61922
9.61906
9.65118
9.66061
9.80067
9.82594
10.5552
10.5259
13.1656
12.557
20.4355
29.554
13.5214
10.659
11.4134
9.94077
10.0253
9.68275
9.7042
9.62062
9.63277
9.60661
9.61095
9.59935
9.59994
9.59543
9.59814
9.59701
9.60521
9.60407
9.61715
9.61554
9.65004
9.65635
9.80527
9.82024
10.5628
10.5101
13.1737
12.5378
20.512
29.5486
13.5025
10.6546
11.3988
9.93722
10.0272
9.68108
9.70199
9.61802
9.63062
9.60416
9.60929
9.59887
9.60021
9.59522
9.59823
9.59698
9.60432
9.60211
9.61565
9.61266
9.64972
9.65265
9.81018
9.81521
10.57
10.4952
13.1809
12.5205
20.5824
29.5442
13.486
10.6509
11.3858
9.93411
10.0292
9.68019
9.70041
9.61613
9.62886
9.60213
9.60786
9.59802
9.60017
9.59511
9.59841
9.59674
9.60342
9.60035
9.61448
9.61027
9.64965
9.64974
9.81524
9.81081
10.577
10.4816
13.1879
12.5053
20.6441
29.5405
13.4717
10.6477
11.3744
9.93093
10.0314
9.67985
9.69937
9.61471
9.62765
9.60051
9.60668
9.59711
9.59981
9.59506
9.59844
9.59624
9.60269
9.59889
9.61374
9.60826
9.65008
9.64725
9.82104
9.80661
10.5832
10.4691
13.1944
12.4916
20.6885
29.5374
13.4599
10.6447
11.3646
9.92759
10.0322
9.68004
9.69908
9.61371
9.62674
9.59916
9.60574
9.59623
9.59933
9.59497
9.59824
9.59562
9.60199
9.59754
9.61312
9.6066
9.65071
9.64537
9.82738
9.80316
10.5898
10.4577
13.2007
12.4793
20.7315
29.5349
13.4492
10.6419
11.3561
9.9241
10.032
9.6804
9.69928
9.61296
9.62619
9.59808
9.60497
9.59538
9.59882
9.59466
9.59792
9.59494
9.60141
9.59639
9.61282
9.60521
9.65166
9.64389
9.83262
9.79938
10.5961
10.4477
13.2064
12.4677
20.7711
29.5329
13.4396
10.6395
11.3488
9.92073
10.0317
9.68089
9.69978
9.61246
9.62587
9.5972
9.60438
9.59461
9.59833
9.59424
9.59757
9.59426
9.60091
9.59537
9.61264
9.60409
9.65275
9.64286
9.83701
9.79556
10.6014
10.4382
13.2121
12.458
20.8076
29.5312
13.4309
10.6378
11.3424
9.91735
10.0315
9.68144
9.70047
9.61213
9.62574
9.59648
9.60392
9.59389
9.59789
9.59378
9.59723
9.5936
9.60051
9.5945
9.61268
9.60316
9.65397
9.64209
9.84131
9.79181
10.6061
10.4295
13.2173
12.4492
20.8412
29.5299
13.4233
10.6365
11.3365
9.91383
10.0318
9.68207
9.7013
9.61193
9.62574
9.59588
9.60357
9.59324
9.59751
9.59333
9.59698
9.59297
9.6002
9.59372
9.61279
9.6024
9.65523
9.6415
9.84554
9.78825
10.6099
10.4213
13.222
12.4415
20.8718
29.5287
13.4163
10.6352
11.3314
9.91057
10.0323
9.68258
9.70217
9.61185
9.62584
9.59539
9.6033
9.59263
9.59743
9.59304
9.59695
9.59255
9.59995
9.59303
9.61302
9.60176
9.65653
9.641
9.84967
9.78492
10.6134
10.4137
13.2265
12.4346
20.9002
29.5278
13.4102
10.6339
11.3271
9.90775
10.0325
9.68282
9.70297
9.61188
9.62604
9.59498
9.60311
9.59206
9.59738
9.59272
9.59689
9.59221
9.59977
9.59242
9.61332
9.60125
9.65789
9.64057
9.85358
9.78188
10.6164
10.4065
13.2308
12.4284
20.9264
29.5271
13.4046
10.6325
11.3233
9.90513
10.0328
9.68283
9.70384
9.61208
9.62634
9.59465
9.60301
9.59155
9.59733
9.59237
9.59682
9.59187
9.59966
9.59189
9.6137
9.60084
9.65953
9.64021
9.85727
9.77907
10.6189
10.3996
13.2347
12.4228
20.9504
29.5264
13.3996
10.6312
11.3201
9.90276
10.0333
9.68262
9.70446
9.61237
9.62672
9.59437
9.60298