/*--------------------------------*- C++ -*----------------------------------*\
  =========                 |
  \\      /  F ield         | OpenFOAM: The Open Source CFD Toolbox
   \\    /   O peration     | Website:  https://openfoam.org
    \\  /    A nd           | Version:  10
     \\/     M anipulation  |
\*---------------------------------------------------------------------------*/
FoamFile
{
    format      ascii;
    class       volScalarField;
    location    "0.1";
    object      omega;
}
// * * * * * * * * * * * * * * * * * * * * * * * * * * * * * * * * * * * * * //

dimensions      [0 0 -1 0 0 0 0];

internalField   nonuniform List<scalar> 
116798
(
90.7538
65.4994
68.2793
61.6662
57.5139
56.0496
56.3884
57.7873
59.4312
60.8445
61.8707
62.5181
62.8709
63.0133
62.9471
62.6944
62.2991
61.8601
61.4759
61.1992
61.0407
61.0007
61.0718
61.2628
61.5548
61.9776
62.4201
62.9721
62.9942
60.9019
82.0972
64.5404
54.6195
47.6972
43.4086
41.44
41.1396
41.6669
42.3471
42.8333
43.0459
43.0542
42.9107
42.6475
42.2653
41.8949
41.6048
41.3997
41.2671
41.1982
41.1869
41.2335
41.3297
41.4817
41.6602
41.8886
42.0512
42.2407
41.8738
39.7153
71.8188
63.2647
56.2967
49.6754
45.7405
44.4198
44.5002
44.8918
44.9882
44.6563
44.0129
43.2288
42.4402
41.7615
41.2269
40.825
40.5285
40.3135
40.1665
40.0826
40.0542
40.0801
40.1447
40.2574
40.3753
40.5407
40.6052
40.7344
40.2393
38.4287
71.2853
62.7095
58.2221
51.9497
48.6125
47.4854
47.0295
46.351
45.238
43.903
42.6449
41.608
40.7799
40.1478
39.67
39.3081
39.0358
38.8372
38.6998
38.617
38.5764
38.5784
38.6061
38.6767
38.7349
38.8497
38.8474
38.9501
38.3662
36.8572
73.811
61.8837
59.1654
53.8611
50.7914
49.0313
47.3465
45.3986
43.52
41.9758
40.7747
39.8484
39.1449
38.6085
38.1961
37.8781
37.6341
37.451
37.3175
37.2286
37.1729
37.1546
37.1534
37.1922
37.2093
37.2894
37.236
37.3291
36.7624
35.4123
75.4695
59.36
57.8371
53.7415
50.6221
47.9682
45.3497
43.0756
41.3151
40.0043
39.011
38.2477
37.6642
37.2091
36.8522
36.5724
36.3541
36.1869
36.0603
35.9714
35.9089
35.8799
35.8596
35.8777
35.8637
35.9209
35.8348
35.9262
35.4
34.1472
73.9627
54.8264
54.0146
50.8548
47.8076
44.9308
42.4788
40.6054
39.2314
38.2083
37.4209
36.8026
36.3215
35.9411
35.6392
35.4006
35.2122
35.0657
34.9507
34.8663
34.8008
34.7651
34.7304
34.7359
34.6998
34.7477
34.6385
34.7331
34.2802
33.0684
68.6514
49.293
48.8289
46.3207
43.8174
41.5462
39.7513
38.4014
37.3936
36.6188
36.0088
35.5192
35.1263
34.8132
34.5614
34.3607
34.201
34.0752
33.9734
33.8966
33.8323
33.7953
33.7529
33.7537
33.7028
33.7488
33.6234
33.7228
33.3601
32.1568
61.1085
44.1088
43.7066
41.8016
40.1545
38.6495
37.462
36.5305
35.8085
35.2331
34.7689
34.3879
34.0728
33.8194
33.6132
33.4481
33.3158
33.2106
33.1229
33.0557
32.9954
32.9607
32.9147
32.9147
32.8559
32.9025
32.7702
32.8709
32.6122
31.3908
54.0861
39.8734
39.3782
38.2301
37.3091
36.3673
35.6058
34.9729
34.4639
34.0439
33.6969
33.4057
33.1583
32.9554
32.7889
32.6552
32.5477
32.4618
32.3878
32.3308
32.2763
32.246
32.1999
32.2019
32.1392
32.1882
32.056
32.1547
32.0068
30.7492
49.0672
36.6746
36.1755
35.7238
35.1837
34.607
34.1193
33.6952
33.34
33.0383
32.7824
32.5633
32.373
32.2117
32.0793
31.973
31.8873
31.8185
31.7574
31.7105
31.6624
31.6378
31.5934
31.5985
31.5354
31.5866
31.461
31.5537
31.5179
30.213
45.8035
34.4388
34.048
33.9903
33.5927
33.2591
32.9382
32.66
32.4123
32.1992
32.0117
31.8495
31.7049
31.5783
31.4741
31.3909
31.3238
31.2699
31.2204
31.1828
31.1415
31.1225
31.0812
31.0899
31.0289
31.0813
30.9672
31.0508
31.1226
29.7651
43.6559
32.9405
32.6654
32.7468
32.3986
32.2286
32.0045
31.8289
31.654
31.5064
31.3695
31.2507
31.1415
31.0437
30.9624
30.8983
30.8466
30.8052
30.7658
30.7365
30.7015
30.6879
30.6503
30.6625
30.6052
30.6575
30.5586
30.6287
30.8014
29.3911
42.1869
31.9135
31.7609
31.8259
31.5016
31.4386
31.2686
31.165
31.0389
30.9393
30.8389
30.753
30.6707
30.5963
30.533
30.4841
30.4448
30.4136
30.3825
30.3603
30.331
30.3224
30.289
30.3044
30.2521
30.3025
30.2216
30.2741
30.5421
29.0789
41.1426
31.1831
31.1527
31.1311
30.8262
30.8297
30.6897
30.6363
30.5422
30.4776
30.4034
30.342
30.2799
30.2237
30.1744
30.1376
30.108
30.0849
30.0608
30.0444
30.0204
30.0161
29.9873
30.0051
29.9583
30.0054
29.9452
29.9775
30.3335
28.8188
40.3767
30.6454
30.7205
30.5988
30.3158
30.3572
30.2351
30.2156
30.1421
30.1026
30.047
30.0041
29.9571
29.9152
29.8766
29.8491
29.8272
29.8104
29.792
29.7806
29.7614
29.7608
29.7363
29.7548
29.7147
29.7572
29.7196
29.7298
30.166
28.6026
39.8026
30.239
30.3976
30.1868
29.9297
29.9886
29.8783
29.881
29.8205
29.7988
29.7561
29.7268
29.6912
29.6605
29.6304
29.6103
29.5944
29.5826
29.569
29.5614
29.5467
29.5484
29.5279
29.5458
29.5133
29.5501
29.5367
29.5233
30.0315
28.423
39.3674
29.9261
30.15
29.8662
29.6389
29.6994
29.5986
29.6142
29.5629
29.553
29.5196
29.5003
29.4733
29.4511
29.4278
29.4135
29.4022
29.3943
29.3845
29.38
29.3687
29.3718
29.3548
29.3718
29.3476
29.3776
29.3895
29.3516
29.9236
28.274
39.0355
29.6825
29.9589
29.6152
29.4216
29.4713
29.3795
29.4014
29.3567
29.3552
29.3283
29.3162
29.2954
29.2797
29.2619
29.2519
29.2442
29.2392
29.2324
29.23
29.2215
29.2248
29.212
29.2272
29.2118
29.2341
29.2721
29.2091
29.8369
28.1504
38.7811
29.4914
29.8101
29.4175
29.2587
29.2906
29.2082
29.2313
29.1922
29.1957
29.1738
29.1669
29.1509
29.1399
29.1264
29.1196
29.1145
29.1114
29.107
29.1055
29.0996
29.1032
29.0945
29.1073
29.1011
29.115
29.1792
29.0909
29.7676
28.0476
38.583
29.3407
29.6922
29.261
29.1365
29.1469
29.075
29.0954
29.0611
29.0673
29.0491
29.0458
29.0333
29.0258
29.0157
29.0112
29.008
29.0061
29.0036
29.003
28.9996
29.0028
28.9982
29.0078
29.0113
29.0162
29.1067
28.9931
29.7121
27.9624
38.4276
29.2213
29.5986
29.1365
29.045
29.0323
28.9716
28.9869
28.9572
28.964
28.9488
28.9477
28.9379
28.9329
28.9254
28.9225
28.9209
28.9199
28.919
28.9188
28.9177
28.9199
28.9193
28.9255
28.9389
28.9344
29.0508
28.9124
29.6682
27.8918
38.3055
29.1263
29.5249
29.0373
28.977
28.9405
28.8913
28.9001
28.8751
28.8811
28.8686
28.8685
28.8609
28.8576
28.8522
28.8505
28.85
28.8496
28.85
28.8498
28.8507
28.8516
28.8551
28.8576
28.8809
28.8668
29.0082
28.8458
29.6334
27.8335
38.2093
29.0504
29.4667
28.9579
28.927
28.8668
28.8292
28.8306
28.8104
28.8147
28.8047
28.8048
28.799
28.7968
28.7931
28.7921
28.7925
28.7923
28.7937
28.7931
28.796
28.7954
28.8031
28.8017
28.8348
28.811
28.9765
28.7911
29.6061
27.7853
38.1332
28.9894
29.4207
28.8942
28.8907
28.8077
28.7813
28.7748
28.7595
28.7615
28.7538
28.7537
28.7495
28.7478
28.7454
28.7447
28.7458
28.7456
28.748
28.7469
28.7517
28.7494
28.7612
28.7559
28.7986
28.7648
28.9533
28.7461
29.5849
27.7456
38.073
28.9403
29.3845
28.843
28.8646
28.7602
28.7446
28.7299
28.7194
28.7189
28.7135
28.7128
28.71
28.7085
28.7071
28.7066
28.7082
28.7078
28.7111
28.7092
28.7158
28.7118
28.7279
28.7182
28.7703
28.7266
28.9368
28.7092
29.5687
27.7128
38.0253
28.9008
29.3563
28.8019
28.8465
28.7222
28.717
28.6938
28.688
28.6847
28.6817
28.6802
28.6785
28.6771
28.6765
28.6759
28.678
28.6772
28.6813
28.6787
28.6872
28.6814
28.7014
28.6873
28.7482
28.6952
28.9252
28.6791
29.5564
27.6858
37.9874
28.8688
29.3344
28.7688
28.835
28.6916
28.6959
28.6648
28.6633
28.6571
28.6562
28.6539
28.6534
28.6518
28.6518
28.6512
28.6536
28.6525
28.6573
28.6539
28.6642
28.6564
28.6803
28.6618
28.731
28.669
28.9178
28.6547
29.5473
27.6636
37.9571
28.8428
29.3173
28.7419
28.8269
28.6671
28.6799
28.6414
28.6438
28.6347
28.6357
28.6325
28.633
28.6313
28.6319
28.6312
28.6339
28.6325
28.638
28.6338
28.6457
28.636
28.6634
28.6406
28.7176
28.6472
28.9135
28.6348
29.5408
27.6454
37.933
28.8214
29.3042
28.7196
28.8177
28.6472
28.6681
28.6223
28.6288
28.6166
28.6195
28.6152
28.6167
28.6147
28.6158
28.615
28.618
28.6163
28.6225
28.6173
28.6308
28.619
28.65
28.623
28.7074
28.629
28.9098
28.6187
29.5364
27.6304
37.9138
28.8038
29.2938
28.7008
28.8105
28.6308
28.6597
28.6068
28.6173
28.6019
28.6068
28.6013
28.6037
28.6014
28.603
28.602
28.6054
28.6032
28.6101
28.6038
28.6189
28.6048
28.6394
28.6082
28.7
28.6138
28.9068
28.6056
29.5338
27.6181
37.8985
28.7893
29.2855
28.6854
28.8051
28.6173
28.6539
28.5943
28.6086
28.5901
28.5969
28.5902
28.5935
28.5909
28.5929
28.5917
28.5953
28.5926
28.6001
28.5927
28.6093
28.5931
28.6311
28.5959
28.6948
28.6011
28.905
28.595
29.5324
27.608
37.8859
28.7774
29.279
28.6727
28.8008
28.6062
28.6501
28.5841
28.602
28.5806
28.5892
28.5813
28.5855
28.5824
28.5849
28.5833
28.5872
28.584
28.5921
28.5836
28.6017
28.5835
28.6248
28.5858
28.6914
28.5905
28.9041
28.5865
29.5321
27.5996
37.8756
28.7675
29.273
28.6622
28.7977
28.5972
28.6479
28.5758
28.5972
28.5729
28.5833
28.5741
28.5792
28.5756
28.5784
28.5766
28.5807
28.5769
28.5857
28.5761
28.5956
28.5755
28.62
28.5774
28.6894
28.5816
28.904
28.5797
29.5325
27.5928
37.8673
28.7593
29.2681
28.6535
28.7954
28.5898
28.6466
28.5691
28.5936
28.5666
28.5786
28.5683
28.5742
28.5701
28.5734
28.5711
28.5756
28.5712
28.5805
28.57
28.5909
28.5689
28.6164
28.5704
28.6883
28.5743
28.9041
28.5741
29.5334
27.5872
37.8607
28.7525
29.2639
28.6463
28.7939
28.5838
28.6463
28.5637
28.5912
28.5615
28.5751
28.5635
28.5703
28.5657
28.5693
28.5667
28.5714
28.5665
28.5764
28.5649
28.5872
28.5634
28.614
28.5647
28.6879
28.5682
28.9047
28.5697
29.5348
27.5826
37.8554
28.7468
29.2606
28.6404
28.7931
28.5789
28.6466
28.5592
28.5895
28.5573
28.5724
28.5597
28.5672
28.5621
28.5661
28.5631
28.5681
28.5626
28.5732
28.5607
28.5843
28.5589
28.6121
28.5599
28.6881
28.5632
28.9056
28.5662
29.5365
27.5788
37.8511
28.742
29.258
28.6354
28.7928
28.575
28.6474
28.5556
28.5886
28.5539
28.5704
28.5565
28.5648
28.5591
28.5636
28.5602
28.5655
28.5594
28.5706
28.5571
28.5821
28.555
28.611
28.5559
28.689
28.559
28.9069
28.5633
29.5383
27.5757
37.8476
28.738
29.2559
28.6313
28.7931
28.5716
28.648
28.5528
28.5881
28.551
28.5689
28.5539
28.5629
28.5567
28.5615
28.5577
28.5634
28.5567
28.5686
28.5542
28.5803
28.5518
28.6104
28.5524
28.691
28.5555
28.9087
28.5611
29.5402
27.5731
37.8448
28.7346
29.2542
28.6278
28.7938
28.5686
28.6485
28.5504
28.5882
28.5487
28.5678
28.5516
28.5614
28.5546
28.5599
28.5556
28.5617
28.5544
28.5669
28.5516
28.579
28.549
28.6103
28.5495
28.6925
28.5526
28.9106
28.5593
29.5422
27.571
37.8425
28.7317
29.2529
28.6248
28.7947
28.5661
28.649
28.5485
28.5885
28.5467
28.567
28.5497
28.5602
28.5528
28.5585
28.5538
28.5603
28.5525
28.5656
28.5495
28.5781
28.5467
28.6104
28.547
28.6931
28.5503
28.9126
28.5579
29.5443
27.5693
37.8407
28.7293
29.252
28.6224
28.796
28.564
28.6497
28.5469
28.5891
28.545
28.5665
28.5481
28.5593
28.5512
28.5574
28.5523
28.5591
28.5508
28.5646
28.5476
28.5774
28.5448
28.6109
28.5449
28.6937
28.5484
28.9146
28.5568
29.5463
27.5679
37.8392
28.7272
29.2513
28.6203
28.7973
28.5623
28.6505
28.5457
28.5898
28.5436
28.5661
28.5467
28.5585
28.5499
28.5565
28.5509
28.5582
28.5493
28.5638
28.546
28.577
28.5431
28.6116
28.5432
28.6944
28.5468
28.9165
28.5559
29.5483
27.5667
37.8381
28.7254
29.2507
28.6185
28.7987
28.5608
28.6514
28.5447
28.5906
28.5424
28.5659
28.5454
28.5579
28.5486
28.5558
28.5497
28.5574
28.5479
28.5631
28.5446
28.5767
28.5417
28.6123
28.5418
28.6951
28.5455
28.9184
28.5552
29.5502
27.5658
37.8371
28.7239
29.2504
28.617
28.8001
28.5596
28.6523
28.5438
28.5915
28.5414
28.5659
28.5443
28.5575
28.5475
28.5552
28.5485
28.5568
28.5467
28.5626
28.5433
28.5765
28.5404
28.6131
28.5406
28.6961
28.5444
28.9202
28.5547
29.552
27.565
37.8364
28.7226
29.2502
28.6158
28.8014
28.5585
28.6533
28.5431
28.5927
28.5406
28.5659
28.5434
28.5571
28.5465
28.5547
28.5475
28.5562
28.5456
28.5622
28.5422
28.5765
28.5394
28.6145
28.5397
28.6972
28.5435
28.922
28.5543
29.5538
27.5644
37.8358
28.7215
29.2501
28.6147
28.8028
28.5576
28.6543
28.5425
28.5937
28.54
28.5661
28.5425
28.5569
28.5456
28.5543
28.5465
28.5558
28.5446
28.5619
28.5413
28.5767
28.5384
28.616
28.5389
28.6984
28.5427
28.9236
28.554
29.5554
27.5639
37.8353
28.7206
29.2501
28.6138
28.8041
28.5568
28.6553
28.5419
28.5946
28.5394
28.5664
28.5418
28.5567
28.5448
28.554
28.5457
28.5555
28.5438
28.5617
28.5404
28.5769
28.5376
28.617
28.5383
28.6996
28.5421
28.9252
28.5538
29.557
27.5634
37.835
28.7197
29.2502
28.613
28.8053
28.5561
28.6564
28.5415
28.5954
28.5389
28.5666
28.5411
28.5566
28.544
28.5537
28.5448
28.5552
28.5429
28.5615
28.5396
28.5771
28.5369
28.6177
28.5377
28.7008
28.5415
28.9266
28.5536
29.5584
27.5631
37.8347
28.719
29.2503
28.6123
28.8064
28.5555
28.6575
28.5411
28.5962
28.5385
28.5669
28.5405
28.5565
28.5433
28.5535
28.5441
28.555
28.5422
28.5614
28.539
28.5774
28.5363
28.6184
28.5373
28.7019
28.541
28.928
28.5535
29.5598
27.5628
37.8344
28.7184
29.2505
28.6118
28.8074
28.5551
28.6586
28.5408
28.5971
28.5381
28.5673
28.54
28.5565
28.5426
28.5533
28.5434
28.5548
28.5415
28.5614
28.5384
28.5778
28.5358
28.6193
28.537
28.703
28.5407
28.9292
28.5534
29.561
27.5625
37.8343
28.7179
29.2506
28.6113
28.8083
28.5546
28.6596
28.5405
28.598
28.5378
28.5678
28.5395
28.5565
28.542
28.5532
28.5427
28.5547
28.5409
28.5615
28.5379
28.5783
28.5354
28.6201
28.5367
28.7041
28.5403
28.9304
28.5533
29.5622
27.5623
37.8341
28.7174
29.2508
28.6108
28.8091
28.5543
28.6607
28.5403
28.5989
28.5375
28.5684
28.5391
28.5566
28.5415
28.5532
28.5421
28.5547
28.5404
28.5616
28.5374
28.5791
28.5351
28.6209
28.5365
28.7051
28.54
28.9314
28.5533
29.5632
27.5622
37.834
28.717
29.251
28.6105
28.8098
28.5539
28.6617
28.5402
28.5998
28.5373
28.5689
28.5388
28.5568
28.541
28.5532
28.5416
28.5547
28.5399
28.5617
28.537
28.5797
28.5348
28.6218
28.5364
28.706
28.5398
28.9324
28.5533
29.5641
27.562
37.8339
28.7166
29.2511
28.6101
28.8104
28.5537
28.6626
28.54
28.6007
28.537
28.5693
28.5385
28.5569
28.5405
28.5532
28.5411
28.5547
28.5394
28.5619
28.5367
28.5801
28.5345
28.6226
28.5362
28.7068
28.5396
28.9333
28.5533
29.565
27.5619
37.8339
28.7163
29.2512
28.6098
28.811
28.5534
28.6635
28.5399
28.6016
28.5368
28.5698
28.5382
28.5571
28.5401
28.5533
28.5407
28.5548
28.5391
28.5621
28.5363
28.5806
28.5344
28.6234
28.5361
28.7076
28.5394
28.9341
28.5533
29.5657
27.5618
37.8338
28.7161
29.2514
28.6096
28.8115
28.5532
28.6642
28.5398
28.6024
28.5367
28.5703
28.538
28.5574
28.5398
28.5534
28.5403
28.5549
28.5387
28.5624
28.5361
28.5811
28.5342
28.6241
28.5361
28.7083
28.5392
28.9348
28.5533
29.5664
27.5617
37.8338
28.7159
29.2514
28.6094
28.8119
28.553
28.6649
28.5397
28.6032
28.5365
28.5708
28.5377
28.5577
28.5395
28.5535
28.5399
28.555
28.5384
28.5627
28.5359
28.5816
28.5341
28.6248
28.536
28.7089
28.5391
28.9354
28.5533
29.567
27.5616
37.8338
28.7157
29.2515
28.6092
28.8122
28.5529
28.6655
28.5397
28.6039
28.5364
28.5712
28.5375
28.558
28.5392
28.5536
28.5396
28.5551
28.5381
28.5631
28.5357
28.5821
28.5339
28.6254
28.536
28.7094
28.539
28.9359
28.5533
29.5676
27.5616
37.8338
28.7155
29.2515
28.609
28.8125
28.5528
28.666
28.5396
28.6045
28.5363
28.5716
28.5374
28.5583
28.539
28.5537
28.5394
28.5552
28.5379
28.5634
28.5355
28.5825
28.5338
28.6259
28.5359
28.7099
28.5389
28.9364
28.5533
29.568
27.5615
37.8338
28.7154
29.2515
28.6089
28.8126
28.5526
28.6664
28.5395
28.605
28.5362
28.572
28.5372
28.5585
28.5388
28.5539
28.5391
28.5554
28.5377
28.5636
28.5354
28.5829
28.5338
28.6263
28.5359
28.7102
28.5388
28.9367
28.5533
29.5684
27.5615
37.8338
28.7152
29.2514
28.6087
28.8126
28.5525
28.6667
28.5395
28.6053
28.5361
28.5723
28.5371
28.5587
28.5386
28.5541
28.5389
28.5556
28.5375
28.5639
28.5352
28.5831
28.5337
28.6266
28.5358
28.7105
28.5387
28.937
28.5533
29.5687
27.5614
37.8337
28.7151
29.2513
28.6086
28.8126
28.5524
28.6668
28.5394
28.6056
28.536
28.5725
28.537
28.5589
28.5385
28.5542
28.5388
28.5557
28.5374
28.564
28.5351
28.5833
28.5336
28.6268
28.5358
28.7106
28.5387
28.9372
28.5533
29.569
27.5614
37.8337
28.7151
29.251
28.6085
28.8123
28.5523
28.6667
28.5393
28.6057
28.5359
28.5726
28.5369
28.559
28.5384
28.5543
28.5386
28.5558
28.5373
28.5641
28.535
28.5834
28.5336
28.6268
28.5357
28.7107
28.5386
28.9372
28.5533
29.5691
27.5614
37.8337
28.715
29.2506
28.6083
28.8119
28.5523
28.6664
28.5392
28.6056
28.5359
28.5725
28.5368
28.559
28.5383
28.5543
28.5385
28.5558
28.5372
28.5641
28.535
28.5834
28.5335
28.6267
28.5356
28.7105
28.5385
28.9371
28.5533
29.5692
27.5613
37.8337
28.715
29.2501
28.6082
28.8113
28.5522
28.666
28.5391
28.6052
28.5358
28.5724
28.5367
28.5589
28.5382
28.5542
28.5385
28.5557
28.5371
28.564
28.5349
28.5832
28.5334
28.6264
28.5356
28.7103
28.5385
28.9368
28.5533
29.5692
27.5613
37.8337
28.715
29.2495
28.608
28.8105
28.5521
28.6653
28.5389
28.6047
28.5357
28.572
28.5367
28.5586
28.5382
28.554
28.5384
28.5555
28.537
28.5637
28.5349
28.5829
28.5334
28.6259
28.5355
28.7098
28.5385
28.9364
28.5533
29.5691
27.5613
37.8337
28.715
29.2486
28.6079
28.8094
28.552
28.6643
28.5388
28.6038
28.5356
28.5716
28.5366
28.5583
28.5381
28.5538
28.5384
28.5553
28.537
28.5634
28.5348
28.5823
28.5333
28.6251
28.5353
28.7091
28.5384
28.9358
28.5533
29.5689
27.5612
37.8337
28.715
29.2476
28.6077
28.8081
28.5519
28.6631
28.5386
28.6027
28.5355
28.5708
28.5366
28.5578
28.5382
28.5534
28.5384
28.5549
28.537
28.5629
28.5348
28.5816
28.5332
28.6241
28.5352
28.7082
28.5384
28.935
28.5533
29.5685
27.5612
37.8337
28.7151
29.2463
28.6075
28.8063
28.5518
28.6615
28.5383
28.6012
28.5355
28.57
28.5366
28.5573
28.5382
28.553
28.5385
28.5544
28.5371
28.5622
28.5348
28.5807
28.5331
28.6229
28.535
28.7071
28.5383
28.934
28.5532
29.5681
27.5611
37.8337
28.7153
29.2449
28.6073
28.8046
28.5517
28.66
28.5381
28.5997
28.5354
28.569
28.5367
28.5566
28.5383
28.5524
28.5386
28.5538
28.5371
28.5615
28.5348
28.5796
28.533
28.6214
28.5348
28.7058
28.5383
28.9328
28.5532
29.5675
27.5611
37.8338
28.7154
29.2433
28.6071
28.8022
28.5515
28.6576
28.5378
28.5975
28.5353
28.5678
28.5368
28.5559
28.5385
28.5518
28.5388
28.5531
28.5373
28.5606
28.5348
28.5784
28.533
28.6198
28.5346
28.7045
28.5383
28.9317
28.5531
29.567
27.561
37.8338
28.7155
29.2418
28.607
28.8004
28.5515
28.6562
28.5376
28.596
28.5353
28.5668
28.5369
28.5552
28.5386
28.5512
28.5389
28.5525
28.5374
28.5598
28.5349
28.5772
28.5329
28.6179
28.5344
28.7028
28.5383
28.9301
28.5531
29.5663
27.561
28.5514
28.6532
28.5373
28.5932
28.5353
28.5653
28.5371
28.5543
28.5389
28.5505
28.5392
28.5517
28.5377
28.5588
28.535
28.5761
28.5329
28.6164
28.5342
28.7017
28.5383
28.9292
28.5531
29.5658
27.561
28.653
28.5373
28.5926
28.5353
28.5648
28.5371
28.5539
28.539
28.5502
28.5394
28.5513
28.5378
28.5581
28.5351
28.5748
28.5328
28.6145
28.534
28.7
28.5384
28.9278
28.553
29.565
27.5609
28.5897
28.5354
28.5631
28.5375
28.5529
28.5395
28.5495
28.5399
28.5505
28.5382
28.5572
28.5352
28.5744
28.5329
28.6143
28.534
28.6999
28.5384
28.9275
28.553
29.5647
27.5609
28.54
28.5504
28.5383
28.5567
28.5354
28.5732
28.5329
28.6128
28.534
28.6987
28.5385
28.9265
28.553
29.5641
27.561
28.55
28.5387
28.5564
28.5356
28.5733
28.533
28.6135
28.5342
28.6995
28.5386
28.927
28.553
29.5639
27.561
28.5392
28.5559
28.5359
28.5727
28.5331
28.613
28.5342
28.6989
28.5388
28.9264
28.553
29.5633
27.5611
28.5561
28.5361
28.5729
28.5333
28.6136
28.5345
28.6996
28.5389
28.9269
28.5529
29.5631
27.5612
28.5335
28.6132
28.5346
28.699
28.5391
28.9263
28.5529
29.5624
27.5613
70.1668
81.2171
71.1534
58.6586
48.1209
40.8868
34.6657
29.6287
25.7931
22.9596
20.4819
18.5021
17.2784
16.0109
15.052
14.738
15.1069
15.9133
16.7924
17.5669
18.2419
18.8929
19.6079
20.4325
21.4465
22.6846
24.4258
27.075
31.7538
46.6053
71.922
79.2697
68.8481
53.6198
43.0299
34.5441
27.2848
21.5851
17.5407
14.8981
13.2402
12.2628
11.6876
11.3458
11.1568
11.0768
11.0811
11.1492
11.2655
11.4108
11.597
11.8047
12.0946
12.4026
12.9315
13.4952
14.9975
17.1856
21.0938
24.462
69.0097
75.7069
63.9024
49.3917
38.5031
29.5089
22.4323
17.4899
14.4216
12.6803
11.7461
11.2751
11.0326
10.9055
10.8429
10.8263
10.8485
10.9049
10.9859
11.0908
11.2112
11.3664
11.5439
11.7891
12.1183
12.6519
13.8867
16.1207
18.6265
20.9327
67.5941
72.4612
59.8323
45.19
33.7504
24.8061
18.6029
14.8501
12.8464
11.8576
11.3694
11.1136
10.9642
10.8684
10.8053
10.7666
10.7533
10.7639
10.7951
10.8451
10.9169
11.0066
11.1356
11.2814
11.5869
11.9896
13.4304
15.2607
17.8029
19.8423
67.6177
70.0607
55.6412
40.5071
29.0364
20.9701
16.0874
13.4832
12.1988
11.5583
11.2085
10.998
10.8598
10.7661
10.7034
10.6654
10.6493
10.6529
10.6724
10.7089
10.7575
10.8269
10.9159
11.0434
11.2989
11.7745
13.2038
15.0444
17.1151
19.3174
67.8546
66.2926
49.9703
35.0835
24.6667
18.1417
14.5814
12.7811
11.8737
11.3816
11.0876
10.8994
10.7728
10.6852
10.6243
10.5845
10.5627
10.5565
10.5633
10.5827
10.6137
10.6565
10.7306
10.8248
11.1056
11.5931
13.179
14.6886
16.7335
18.8861
66.6685
58.7375
42.22
29.21
20.9135
16.1224
13.6012
12.2954
11.5962
11.191
10.9389
10.7708
10.6563
10.5758
10.5195
10.4822
10.4606
10.4524
10.4549
10.467
10.4883
10.5198
10.5792
10.6722
10.9599
11.531
13.1255
14.3826
16.2996
18.5742
62.1127
47.5658
33.5385
23.8398
17.9597
14.6285
12.8323
11.8556
11.3128
10.9869
10.7796
10.6382
10.5404
10.4703
10.4204
10.3859
10.3639
10.3528
10.3502
10.3552
10.3679
10.3897
10.4461
10.5343
10.8576
11.477
13.0614
14.0213
15.8501
18.2861
53.7387
36.2251
26.0471
19.7233
15.7804
13.4857
12.1889
11.4539
11.0407
10.7853
10.6202
10.5039
10.4216
10.3615
10.318
10.2874
10.2671
10.2557
10.251
10.252
10.2604
10.2782
10.3325
10.4301
10.782
11.4516
12.9028
13.744
15.4653
18.0285
44.8475
28.0752
20.8248
16.9237
14.2611
12.6337
11.6649
11.1054
10.7925
10.5959
10.468
10.3752
10.308
10.2584
10.2217
10.1953
10.1769
10.1654
10.1591
10.1574
10.1638
10.1789
10.2366
10.3431
10.7337
11.398
12.6684
13.5153
15.1288
17.7867
39.0176
23.3005
17.5725
15.1606
13.2606
12.0256
11.2548
10.8177
10.5769
10.4262
10.3285
10.2557
10.202
10.1613
10.1309
10.1085
10.0925
10.0819
10.0754
10.0728
10.0787
10.0941
10.1564
10.278
10.7037
11.3113
12.3762
13.3521
14.8398
17.6506
35.9443
20.5863
15.6003
14.1057
12.6222
11.5978
10.9427
10.5866
10.395
10.2784
10.2041
10.1478
10.1058
10.073
10.0484
10.0299
10.0163
10.0068
10.0005
9.99818
10.0045
10.0211
10.0906
10.228
10.6908
11.192
12.1116
13.2374
14.5885
17.6175
34.1596
18.8395
14.3545
13.4757
12.1918
11.2868
10.704
10.4026
10.2449
10.1525
10.0958
10.0525
10.0201
9.99402
9.97432
9.95933
9.94797
9.93979
9.93411
9.93286
9.94042
9.95966
10.0366
10.1925
10.6878
11.0457
11.8835
13.1621
14.3711
17.663
32.9824
17.5525
13.4734
13.0768
11.8666
11.0542
10.5238
10.259
10.1229
10.0476
10.0034
9.9701
9.94534
9.92475
9.90918
9.89713
9.88785
9.88097
9.87659
9.87644
9.88593
9.90866
9.99401
10.1689
10.6804
10.9067
11.6904
13.1121
14.176
17.7695
32.1532
16.6937
12.7337
12.7996
11.5926
10.8837
10.3925
10.1489
10.0244
9.96081
9.92575
9.8998
9.88098
9.86487
9.85273
9.84324
9.83583
9.83056
9.82748
9.82866
9.83988
9.86665
9.96121
10.156
10.6289
10.7825
11.5272
13.0811
13.9997
17.9192
31.5476
16.0826
12.1633
12.5818
11.3406
10.7653
10.3023
10.0681
9.94711
9.89085
9.86121
9.8406
9.82644
9.81421
9.80495
9.79766
9.79192
9.7881
9.78603
9.78869
9.8019
9.83376
9.93859
10.1507
10.5286
10.6766
11.3871
13.0627
13.8394
18.0977
31.0946
15.6166
11.7612
12.3748
11.0937
10.6909
10.2438
10.0091
9.8865
9.83473
9.80831
9.79153
9.78081
9.77154
9.76445
9.75894
9.75452
9.752
9.75076
9.75504
9.77033
9.80738
9.9223
10.1374
10.426
10.5939
11.2668
13.0533
13.6932
18.29
30.7504
15.2472
11.479
12.1588
10.841
10.624
10.1998
9.9659
9.8412
9.79165
9.76578
9.75157
9.74304
9.73603
9.73068
9.72661
9.72325
9.72187
9.72158
9.72755
9.74544
9.78912
9.91258
10.0886
10.3298
10.5307
11.1635
13.0504
13.5578
18.4806
30.4856
14.9513
11.2811
11.9899
10.6185
10.5498
10.1669
9.93446
9.80543
9.75718
9.73176
9.7196
9.71222
9.70675
9.70259
9.6996
9.69701
9.69659
9.69728
9.7051
9.72526
9.77402
9.90644
10.0266
10.2468
10.4853
11.0747
13.0527
13.433
18.6637
30.2803
14.7135
11.1391
11.8653
10.449
10.4648
10.1222
9.91007
9.77867
9.73024
9.70463
9.69379
9.68718
9.68291
9.67968
9.67754
9.67567
9.6762
9.67772
9.68739
9.70912
9.76424
9.90497
9.97357
10.1762
10.4542
10.9983
13.0587
13.3217
18.832
30.1201
14.5207
11.0353
11.7728
10.321
10.3667
10.0574
9.89113
9.7587
9.70968
9.6824
9.6727
9.66678
9.66371
9.66117
9.65971
9.65828
9.65945
9.66126
9.67231
9.69634
9.75764
9.88914
9.92829
10.1161
10.4347
10.9314
13.0662
13.2224
18.9843
29.9943
14.3613
10.9576
11.7036
10.2241
10.2779
9.97892
9.88074
9.746
9.69494
9.66529
9.65615
9.65012
9.64766
9.64569
9.64478
9.64365
9.64544
9.64796
9.66081
9.68731
9.75537
9.8528
9.88973
10.0643
10.4249
10.8729
13.075
13.1329
19.1297
29.8951
14.228
10.8986
11.652
10.1512
10.2083
9.91026
9.87703
9.73808
9.68445
9.65204
9.64311
9.63672
9.63483
9.6332
9.63269
9.63177
9.63415
9.63725
9.65187
9.68079
9.7538
9.81999
9.85899
10.0205
10.423
10.822
13.0846
13.0522
19.2689
29.8165
14.1145
10.852
11.6146
10.0966
10.155
9.8558
9.85686
9.73234
9.67737
9.64206
9.63299
9.62612
9.62456
9.62304
9.62287
9.62219
9.62521
9.62885
9.64536
9.67671
9.73543
9.79049
9.83535
9.9835
10.4273
10.778
13.0947
12.9794
19.4018
29.7541
14.0166
10.8143
11.5876
10.056
10.1141
9.81286
9.82384
9.72902
9.67307
9.63477
9.62535
9.61777
9.6165
9.615
9.61514
9.61458
9.61815
9.62234
9.64073
9.67475
9.71713
9.76511
9.81759
9.95207
10.4359
10.7393
13.1048
12.9136
19.529
29.7043
13.9307
10.7832
11.5672
10.0254
10.0836
9.7794
9.79512
9.71093
9.67016
9.62958
9.61964
9.61133
9.61023
9.60866
9.60906
9.60861
9.61274
9.61753
9.63798
9.67405
9.70169
9.74351
9.80472
9.92581
10.4477
10.7044
13.1151
12.855
19.6528
29.6646
13.8543
10.7564
11.5523
10.0027
10.061
9.75349
9.77242
9.69019
9.66958
9.62601
9.61575
9.60642
9.60552
9.6038
9.60449
9.60408
9.60885
9.61408
9.6368
9.66501
9.68865
9.72514
9.79601
9.90384
10.4631
10.6736
13.1254
12.8023
19.773
29.6329
13.7901
10.7334
11.5423
9.9869
10.0447
9.73375
9.75424
9.6728
9.6702
9.62378
9.61327
9.60277
9.60208
9.60014
9.60112
9.60069
9.60613
9.61164
9.63665
9.655
9.67772
9.7094
9.79041
9.88562
10.4825
10.6464
13.1355
12.755
19.8815
29.6075
13.737
10.7147
11.5267
9.97449
10.0339
9.71837
9.74017
9.65874
9.66195
9.62228
9.61194
9.60013
9.59966
9.59743
9.59868
9.59818
9.60429
9.61014
9.63473
9.64598
9.66904
9.69626
9.78774
9.87
10.5021
10.6223
13.1459
12.7132
19.9855
29.5871
13.6923
10.6999
11.5052
9.96384
10.0278
9.70664
9.7291
9.6472
9.65366
9.62161
9.61152
9.59827
9.59803
9.59546
9.59698
9.59639
9.60321
9.6093
9.63002
9.63775
9.6619
9.68533
9.78727
9.85728
10.5174
10.5994
13.1558
12.6768
20.0853
29.5708
13.654
10.6875
11.4862
9.95616
10.0247
9.69756
9.72053
9.63807
9.64668
9.61829
9.61169
9.59701
9.597
9.59405
9.59584
9.59511
9.60258
9.60898
9.62546
9.63073
9.65666
9.67627
9.78856
9.84664
10.5298
10.5779
13.1652
12.6449
20.1803
29.5577
13.6205
10.6768
11.4712
9.95104
10.0236
9.69079
9.71384
9.63075
9.64088
9.61371
9.61222
9.59624
9.59639
9.59303
9.59505
9.59422
9.60232
9.60753
9.6216
9.62474
9.6527
9.66873
9.79127
9.83769
10.5415
10.5585
13.1743
12.6166
20.2707
29.5472
13.5908
10.6677
11.4592
9.94712
10.0245
9.68576
9.70871
9.62499
9.63615
9.6095
9.61127
9.59577
9.59607
9.59228
9.59457
9.59363
9.60245
9.60503
9.61831
9.61964
9.6499
9.66249
9.79498
9.83019
10.5521
10.5411
13.1832
12.5915
20.3561
29.5388
13.5655
10.6619
11.4434
9.94253
10.0253
9.68206
9.7048
9.62049
9.63246
9.60591
9.6093
9.59555
9.596
9.59176
9.59432
9.59327
9.60233
9.60257
9.6157
9.61543
9.64811
9.65731
9.79954
9.82354
10.5623
10.5256
13.1913
12.5688
20.4371
29.532
13.5438
10.6571
11.4277
9.93867
10.0268
9.67967
9.70174
9.61703
9.62943
9.60284
9.60729
9.59552
9.59611
9.59142
9.59426
9.59309
9.60147
9.60025
9.61359
9.61185
9.64696
9.65298
9.80422
9.81777
10.5701
10.5097
13.1995
12.5493
20.5137
29.5266
13.5248
10.6527
11.4129
9.93499
10.0287
9.67795
9.6995
9.61438
9.62724
9.60033
9.60559
9.59497
9.5964
9.59121
9.59435
9.59307
9.60054
9.59824
9.61206
9.60892
9.64663
9.64924
9.80922
9.81268
10.5773
10.4947
13.2069
12.5319
20.5841
29.5221
13.5082
10.6489
11.3997
9.93178
10.0308
9.67702
9.69791
9.61244
9.62545
9.59826
9.60412
9.59408
9.59632
9.5911
9.59454
9.59278
9.59961
9.59643
9.61087
9.60649
9.64657
9.64629
9.81439
9.80823
10.5845
10.481
13.214
12.5165
20.6459
29.5183
13.4938
10.6457
11.3882
9.9285
10.0332
9.67665
9.69687
9.61099
9.62423
9.5966
9.60292
9.59313
9.59593
9.59106
9.59455
9.59225
9.59886
9.59494
9.61011
9.60445
9.647
9.64376
9.82029
9.80398
10.5907
10.4683
13.2206
12.5028
20.6905
29.5153
13.4819
10.6426
11.3783
9.92509
10.034
9.67681
9.69658
9.60996
9.62331
9.59523
9.60195
9.59222
9.59542
9.59095
9.59432
9.5916
9.59814
9.59356
9.60949
9.60275
9.64764
9.64186
9.82674
9.80048
10.5975
10.4568
13.227
12.4904
20.7337
29.5127
13.4711
10.6398
11.3697
9.92152
10.0338
9.67715
9.6968
9.6092
9.62276
9.59412
9.60118
9.59135
9.5949
9.59061
9.59399
9.59089
9.59754
9.59239
9.60919
9.60134
9.64861
9.64036
9.83206
9.79665
10.6039
10.4467
13.2328
12.4787
20.7735
29.5106
13.4613
10.6375
11.3623
9.91808
10.0335
9.67763
9.69732
9.60869
9.62243
9.59322
9.60058
9.59055
9.5944
9.59017
9.59363
9.59019
9.59703
9.59135
9.609
9.60021
9.64972
9.63931
9.83652
9.79279
10.6093
10.4372
13.2386
12.4689
20.8101
29.509
13.4525
10.6358
11.3558
9.91464
10.0334
9.67816
9.69802
9.60834
9.6223
9.59249
9.60011
9.58982
9.59394
9.58969
9.59327
9.58951
9.59663
9.59046
9.60904
9.59927
9.65097
9.63853
9.84087
9.789
10.614
10.4284
13.2439
12.46
20.8438
29.5076
13.4448
10.6345
11.3499
9.91106
10.0338
9.67878
9.69888
9.60814
9.6223
9.59188
9.59976
9.58915
9.59356
9.58922
9.59302
9.58887
9.59631
9.58967
9.60916
9.59849
9.65224
9.63792
9.84516
9.7854
10.618
10.4201
13.2487
12.4522
20.8746
29.5064
13.4378
10.6332
11.3447
9.90775
10.0343
9.67928
9.69977
9.60805
9.62242
9.59138
9.59949
9.58853
9.59348
9.58893
9.59299
9.58843
9.59606
9.58898
9.6094
9.59784
9.65357
9.63742
9.84935
9.78203
10.6215
10.4124
13.2533
12.4453
20.9032
29.5055
13.4316
10.6319
11.3403
9.90489
10.0345
9.67951
9.70059
9.60808
9.62262
9.59097
9.5993
9.58795
9.59343
9.5886
9.59293
9.5881
9.59589
9.58835
9.60971
9.59732
9.65496
9.63698
9.85332
9.77895
10.6246
10.4052
13.2576
12.439
20.9295
29.5047
13.4259
10.6306
11.3366
9.90225
10.0348
9.6795
9.70148
9.60828
9.62293
9.59063
9.5992
9.58745
9.59339
9.58826
9.59287
9.58775
9.59579
9.58781
9.6101
9.5969
9.65662
9.63662
9.85706
9.77611
10.6273
10.3982
13.2616
12.4334
20.9536
29.5041
13.4209
10.6292
11.3333
9.89985
10.0353
9.67927
9.7021
9.60856
9.62332
9.59035
9.59919
9.587
9.59336