/*--------------------------------*- C++ -*----------------------------------*\
  =========                 |
  \\      /  F ield         | OpenFOAM: The Open Source CFD Toolbox
   \\    /   O peration     | Website:  https://openfoam.org
    \\  /    A nd           | Version:  10
     \\/     M anipulation  |
\*---------------------------------------------------------------------------*/
FoamFile
{
    format      ascii;
    class       volScalarField;
    location    "0.1";
    object      p;
}
// * * * * * * * * * * * * * * * * * * * * * * * * * * * * * * * * * * * * * //

dimensions      [0 2 -2 0 0 0 0];

internalField   nonuniform List<scalar> 
116798
(
1.09283
-38.4851
-39.4531
-31.4874
-21.2083
-12.4952
-5.03287
0.375251
5.12705
8.33551
10.389
11.8163
13.2859
14.6718
16.3531
18.3286
20.6698
23.3795
26.4655
29.9671
33.9598
38.5095
43.6876
49.481
55.8865
62.6797
69.7843
76.7725
85.0278
95.2374
146.469
141.445
102.693
69.9081
49.0411
34.9259
27.09
23.4454
22.0476
21.7363
21.7739
21.8533
22.075
22.4283
22.9128
23.5659
24.3674
25.3796
26.6216
28.1103
29.8902
31.9577
34.3841
37.0975
40.2265
43.5293
47.3176
51.0835
55.8143
61.0114
174.005
155.344
113.455
82.9192
63.5367
50.5246
42.6971
38.5331
36.552
35.8247
35.2664
34.7002
34.2753
33.9329
33.6791
33.5999
33.7078
34.0283
34.5898
35.3865
36.4578
37.7705
39.4042
41.2413
43.4579
45.7393
48.4734
50.9797
53.8551
56.2647
163.088
151.332
115.64
91.1327
74.6332
64.0631
57.6284
53.9998
51.9049
50.627
49.6866
48.1278
47.1212
46.1989
45.4402
44.8929
44.5873
44.5308
44.7453
45.2013
45.9365
46.9034
48.1892
49.6179
51.4116
53.1463
55.2925
56.9561
58.8833
59.9859
159.084
152.455
124.752
104.345
89.6359
80.317
74.4086
70.6037
67.7461
65.3681
63.3926
61.0571
59.4242
57.9258
56.6678
55.686
55.0003
54.6025
54.5024
54.6494
55.1018
55.7644
56.7406
57.8122
59.2309
60.5097
62.1739
63.2798
64.6458
65.3608
164.598
161.9
140.857
122.363
108.398
99.1117
92.4637
87.3702
83.08
79.4043
76.4395
73.5132
70.995
68.9236
67.1997
65.818
64.7807
64.0635
63.671
63.5491
63.7361
64.1216
64.8128
65.5642
66.662
67.5485
68.8301
69.5153
70.5434
71.0118
177.034
176.24
160.365
142.961
128.826
118.19
109.88
102.978
97.155
92.2359
88.2199
85.0821
81.6055
78.9907
76.8321
75.0781
73.7114
72.6919
72.0196
71.6263
71.5497
71.6601
72.0798
72.5291
73.3323
73.8922
74.863
75.2569
76.059
76.4155
191.508
190.68
178.396
161.983
147.206
134.924
124.852
116.415
109.394
103.525
98.6711
94.6133
90.9657
88.0275
85.5308
83.4628
81.8105
80.5231
79.5987
78.9553
78.6371
78.4939
78.6662
78.8562
79.3968
79.6852
80.4161
80.5744
81.2179
81.483
201.282
199.78
189.854
174.812
160.208
147.235
136.375
127.173
119.517
113.085
107.713
103.214
99.3423
96.032
93.2663
90.9465
89.0582
87.5423
86.3983
85.533
84.9989
84.6292
84.5836
84.5377
84.8568
84.9165
85.4452
85.4344
85.9612
86.1658
202.957
200.684
192.853
180.145
167.182
154.919
144.391
135.217
127.485
120.871
115.294
110.578
106.754
103.027
100.063
97.5592
95.493
93.797
92.4744
91.4232
90.7061
90.1412
89.9079
89.662
89.7963
89.6693
90.0341
89.8912
90.3299
90.4802
198.627
196.03
190.298
180.244
169.648
158.93
149.443
140.852
133.459
126.99
121.454
116.686
112.631
108.999
105.951
103.337
101.152
99.3243
97.8653
96.6655
95.7999
95.073
94.6837
94.2674
94.2529
93.9744
94.2074
93.9659
94.3336
94.4386
191.795
189.326
185.434
177.7
169.402
160.42
152.246
144.52
137.73
131.628
126.322
121.662
117.639
114.057
110.989
108.337
106.09
104.18
102.627
101.317
100.338
99.4825
98.9702
98.4184
98.2828
97.8841
98.0121
97.7011
98.0065
98.0657
184.723
182.526
180.063
174.118
167.725
160.338
153.478
146.704
140.638
135.029
130.078
125.642
121.764
118.263
115.271
112.63
110.369
108.42
106.812
105.427
104.366
103.413
102.808
102.151
101.92
101.43
101.479
101.13
101.345
101.378
178.312
176.389
174.982
170.292
165.386
159.345
153.667
147.814
142.495
137.434
132.904
128.767
125.119
121.952
118.885
116.288
114.054
112.103
110.476
109.048
107.936
106.917
106.244
105.509
105.206
104.648
104.638
104.282
104.389
104.41
172.755
171.084
170.415
166.583
162.819
157.871
153.201
148.182
143.573
139.062
134.977
131.171
127.766
124.676
121.862
119.377
117.208
115.288
113.671
112.23
111.093
110.029
109.315
108.525
108.171
107.566
107.512
107.16
107.168
107.184
168.003
166.546
166.373
163.145
160.25
156.177
152.343
148.053
144.09
140.101
136.455
132.991
129.858
126.961
124.333
121.976
119.897
118.033
116.451
115.018
113.88
112.796
112.057
111.233
110.846
110.21
110.124
109.784
109.709
109.72
163.933
162.658
162.809
160.024
157.796
154.424
151.273
147.605
144.21
140.7
137.471
134.342
131.491
128.831
126.391
124.155
122.18
120.391
118.862
117.458
116.338
115.251
114.506
113.665
113.258
112.604
112.498
112.173
112.03
112.037
160.436
159.294
159.661
157.225
155.535
152.706
150.108
146.965
144.061
140.979
138.134
135.323
132.743
130.295
128.049
125.964
124.112
122.411
120.951
119.59
118.502
117.429
116.692
115.847
115.431
114.773
114.654
114.349
114.149
114.152
157.422
156.376
156.831
154.728
153.459
151.069
148.921
146.218
143.735
141.033
138.533
136.016
133.695
131.46
129.403
127.471
125.745
124.14
122.758
121.452
120.409
119.36
118.641
117.804
117.39
116.736
116.61
116.328
116.081
116.081
154.788
153.843
154.347
152.516
151.581
149.538
147.756
145.423
143.3
140.927
138.736
136.488
134.408
132.378
130.503
128.721
127.122
125.618
124.321
123.076
122.084
121.07
120.379
119.559
119.154
118.511
118.385
118.127
117.842
117.841
152.513
151.626
152.15
150.56
149.889
148.126
146.64
144.62
142.802
140.716
138.797
136.791
134.934
133.096
131.393
129.757
128.284
126.881
125.672
124.494
123.56
122.587
121.929
121.133
120.742
120.117
119.994
119.762
119.444
119.448
150.52
149.679
150.26
148.834
148.37
146.832
145.596
143.833
142.267
140.436
138.757
136.967
135.313
133.651
132.126
130.614
129.263
127.962
126.841
125.733
124.859
123.931
123.311
122.543
122.172
121.569
121.452
121.245
120.902
120.91
148.771
147.968
148.593
147.305
147.008
145.654
144.623
143.078
141.739
140.116
138.647
137.049
135.578
134.076
132.697
131.321
130.088
128.885
127.852
126.815
126.003
125.123
124.543
123.808
123.46
122.88
122.772
122.591
122.226
122.24
147.231
146.46
147.118
145.95
145.787
144.584
143.724
142.365
141.215
139.777
138.49
137.064
135.754
134.402
133.158
131.906
130.785
129.677
128.729
127.76
127.011
126.18
125.643
124.943
124.619
124.064
123.966
123.809
123.428
123.449
145.868
145.127
145.814
144.747
144.693
143.614
142.899
141.696
140.709
139.432
138.306
137.03
135.868
134.648
133.53
132.392
131.376
130.356
129.49
128.589
127.901
127.119
126.625
125.96
125.662
125.133
125.046
124.912
124.516
124.546
144.662
143.944
144.658
143.678
143.713
142.738
142.145
141.076
140.228
139.09
138.106
136.963
135.933
134.832
133.829
132.795
131.876
130.94
130.152
129.316
128.688
127.954
127.502
126.872
126.601
126.099
126.021
125.907
125.501
125.541
143.592
142.887
143.634
142.728
142.834
141.945
141.457
140.503
139.776
138.759
137.9
136.874
135.962
134.968
134.07
133.131
132.303
131.444
130.729
129.954
129.383
128.696
128.286
127.69
127.446
126.971
126.895
126.799
126.394
126.444
142.641
141.947
142.722
141.88
142.045
141.23
140.831
139.976
139.354
138.443
137.693
136.771
135.964
135.067
134.265
133.411
132.667
131.88
131.233
130.515
129.999
129.356
128.986
128.423
128.207
127.762
127.698
127.609
127.187
127.261
141.795
141.109
141.906
141.123
141.334
140.582
140.263
139.494
138.963
138.144
137.491
136.661
135.949
135.139
134.423
133.645
132.978
132.256
131.673
131.01
130.545
129.944
129.611
129.082
128.891
128.475
128.416
128.342
127.911
128.001
141.04
140.36
141.172
140.442
140.688
139.997
139.747
139.053
138.601
137.864
137.297
136.549
135.921
135.189
134.549
133.835
133.242
132.581
132.059
131.446
131.028
130.467
130.169
129.672
129.506
129.118
129.061
129.001
128.563
128.671
140.366
139.691
140.514
139.826
140.091
139.466
139.279
138.65
138.268
137.603
137.111
136.435
135.884
135.216
134.648
133.999
133.468
132.862
132.397
131.831
131.457
130.933
130.669
130.202
130.059
129.698
129.643
129.598
129.152
129.277
139.764
139.092
139.924
139.272
139.562
138.989
138.855
138.283
137.962
137.36
136.935
136.323
135.841
135.229
134.729
134.137
133.665
133.11
132.694
132.171
131.838
131.348
131.115
130.676
130.555
130.221
130.169
130.138
129.684
129.825
139.225
138.555
139.394
138.772
139.082
138.557
138.47
137.949
137.681
137.135
136.769
136.215
135.794
135.238
134.796
134.255
133.836
133.328
132.956
132.471
132.176
131.718
131.514
131.102
131.002
130.692
130.643
130.625
130.164
130.32
138.742
138.073
138.918
138.324
138.651
138.168
138.121
137.644
137.425
136.928
136.614
136.111
135.746
135.24
134.85
134.355
133.981
133.515
133.185
132.736
132.476
132.048
131.87
131.483
131.402
131.116
131.069
131.065
130.597
130.767
138.309
137.64
138.491
137.923
138.263
137.818
137.805
137.368
137.189
136.737
136.47
136.012
135.698
135.235
134.891
134.437
134.105
133.676
133.387
132.97
132.743
132.342
132.188
131.825
131.76
131.497
131.453
131.461
130.987
131.17
137.921
137.252
138.108
137.563
137.915
137.502
137.518
137.116
136.975
136.561
136.337
135.919
135.649
135.226
134.923
134.505
134.212
133.814
133.563
133.178
132.979
132.603
132.472
132.13
132.081
131.841
131.796
131.818
131.338
131.533
137.573
136.903
137.764
137.24
137.601
137.217
137.257
136.887
136.778
136.4
136.213
135.832
135.601
135.213
134.949
134.563
134.304
133.936
133.719
133.361
133.189
132.837
132.725
132.403
132.366
132.145
132.108
132.139
131.655
131.862
137.262
136.59
137.454
136.949
137.32
136.961
137.02
136.679
136.599
136.251
136.099
135.75
135.555
135.197
134.968
134.611
134.385
134.043
133.856
133.522
133.376
133.044
132.952
132.65
132.631
132.417
132.377
132.427
131.941
132.158
136.983
136.311
137.174
136.687
137.067
136.733
136.802
136.491
136.436
136.116
135.993
135.673
135.509
135.179
134.982
134.651
134.455
134.136
133.978
133.666
133.541
133.23
133.154
132.87
132.862
132.662
132.616
132.687
132.199
132.426
136.734
136.061
136.92
136.451
136.838
136.523
136.623
136.322
136.287
135.991
135.895
135.599
135.464
135.156
134.992
134.684
134.517
134.218
134.085
133.792
133.688
133.395
133.335
133.069
133.07
132.883
132.833
132.921
132.432
132.667
136.509
135.835
136.693
136.239
136.631
136.333
136.447
136.166
136.15
135.877
135.804
135.531
135.42
135.135
134.999
134.712
134.573
134.294
134.181
133.904
133.818
133.542
133.497
133.249
133.259
133.084
133.029
133.132
132.641
132.884
136.307
135.631
136.49
136.048
136.445
136.162
136.287
136.025
136.025
135.771
135.719
135.466
135.378
135.118
135.002
134.732
134.624
134.364
134.266
134.003
133.933
133.672
133.641
133.411
133.43
133.265
133.205
133.323
132.83
133.08
136.124
135.446
136.307
135.875
136.278
136.008
136.143
135.897
135.911
135.675
135.641
135.406
135.338
135.102
135.002
134.746
134.669
134.426
134.34
134.09
134.035
133.788
133.768
133.553
133.587
133.427
133.363
133.494
133
133.256
135.96
135.28
136.142
135.72
136.127
135.87
136.012
135.781
135.805
135.586
135.569
135.349
135.299
135.086
135.001
134.766
134.706
134.477
134.405
134.167
134.125
133.89
133.879
133.678
133.717
133.571
133.505
133.648
133.153
133.415
135.813
135.13
135.994
135.58
135.992
135.746
135.895
135.675
135.709
135.505
135.502
135.296
135.261
135.061
135.001
134.788
134.735
134.517
134.461
134.234
134.204
133.981
133.977
133.79
133.832
133.699
133.633
133.788
133.292
133.56
135.68
134.995
135.861
135.455
135.87
135.633
135.789
135.582
135.631
135.433
135.441
135.247
135.226
135.032
135
134.805
134.756
134.548
134.508
134.293
134.275
134.063
134.073
133.892
133.937
133.814
133.75
133.913
133.416
133.691
135.56
134.873
135.742
135.341
135.757
135.53
135.693
135.497
135.556
135.367
135.385
135.201
135.195
135.011
134.996
134.807
134.773
134.575
134.55
134.345
134.338
134.138
134.158
133.985
134.032
133.918
133.855
134.027
133.528
133.808
135.453
134.763
135.634
135.239
135.654
135.436
135.605
135.419
135.487
135.306
135.333
135.159
135.167
134.993
134.988
134.806
134.788
134.598
134.585
134.39
134.393
134.206
134.236
134.069
134.117
134.012
133.949
134.129
133.629
133.914
135.356
134.664
135.536
135.148
135.56
135.352
135.525
135.349
135.425
135.252
135.286
135.121
135.14
134.975
134.98
134.808
134.801
134.618
134.617
134.43
134.442
134.265
134.306
134.144
134.194
134.097
134.035
134.221
133.721
134.009
135.268
134.574
135.448
135.063
135.477
135.276
135.454
135.286
135.369
135.202
135.243
135.086
135.115
134.957
134.972
134.808
134.812
134.636
134.644
134.465
134.484
134.316
134.365
134.21
134.263
134.173
134.111
134.304
133.803
134.095
135.189
134.493
135.369
134.987
135.403
135.208
135.389
135.229
135.318
135.157
135.203
135.054
135.091
134.94
134.965
134.807
134.821
134.652
134.668
134.496
134.522
134.363
134.417
134.269
134.324
134.241
134.181
134.38
133.877
134.172
135.118
134.418
135.297
134.917
135.336
135.147
135.332
135.177
135.272
135.116
135.168
135.025
135.069
134.924
134.957
134.805
134.828
134.665
134.689
134.524
134.558
134.404
134.464
134.322
134.38
134.303
134.243
134.447
133.944
134.242
135.053
134.351
135.232
134.854
135.276
135.092
135.279
135.13
135.229
135.078
135.139
134.998
135.049
134.908
134.949
134.801
134.833
134.676
134.708
134.548
134.591
134.442
134.507
134.37
134.43
134.358
134.299
134.508
134.004
134.305
134.995
134.289
135.173
134.796
135.222
135.042
135.232
135.088
135.191
135.045
135.113
134.974
135.031
134.894
134.942
134.798
134.837
134.685
134.724
134.571
134.622
134.476
134.545
134.413
134.475
134.408
134.35
134.564
134.059
134.362
134.942
134.234
135.121
134.744
135.172
134.996
135.189
135.051
135.157
135.015
135.089
134.953
135.014
134.881
134.935
134.795
134.841
134.693
134.739
134.59
134.649
134.507
134.579
134.452
134.515
134.453
134.396
134.613
134.108
134.413
134.895
134.184
135.076
134.701
135.125
134.953
135.15
135.016
135.126
134.989
135.068
134.934
134.997
134.869
134.928
134.792
134.844
134.701
134.752
134.608
134.672
134.534
134.61
134.486
134.552
134.494
134.438
134.658
134.152
134.459
134.853
134.139
135.035
134.663
135.083
134.915
135.115
134.985
135.098
134.964
135.048
134.914
134.977
134.857
134.922
134.79
134.847
134.707
134.761
134.624
134.694
134.559
134.637
134.518
134.585
134.531
134.475
134.699
134.192
134.5
134.815
134.099
134.999
134.629
135.046
134.881
135.084
134.956
135.072
134.942
135.028
134.897
134.965
134.846
134.916
134.787
134.849
134.711
134.767
134.637
134.712
134.582
134.662
134.546
134.614
134.564
134.509
134.735
134.228
134.538
134.78
134.062
134.966
134.6
135.012
134.851
135.055
134.93
135.048
134.922
135.011
134.882
134.955
134.837
134.908
134.784
134.848
134.715
134.777
134.65
134.729
134.602
134.685
134.572
134.641
134.594
134.539
134.768
134.26
134.571
134.749
134.028
134.935
134.572
134.985
134.826
135.027
134.907
135.027
134.903
134.995
134.869
134.946
134.83
134.896
134.78
134.844
134.717
134.786
134.662
134.744
134.62
134.705
134.596
134.664
134.621
134.567
134.798
134.289
134.602
134.72
133.997
134.906
134.545
134.961
134.803
135.001
134.885
135.007
134.887
134.98
134.858
134.937
134.819
134.885
134.774
134.837
134.72
134.794
134.673
134.758
134.637
134.722
134.616
134.686
134.645
134.592
134.824
134.316
134.629
134.694
133.969
134.88
134.52
134.939
134.782
134.978
134.867
134.989
134.872
134.967
134.847
134.928
134.811
134.881
134.768
134.836
134.723
134.801
134.683
134.77
134.652
134.738
134.632
134.705
134.667
134.615
134.848
134.339
134.653
134.671
133.945
134.857
134.498
134.918
134.761
134.955
134.85
134.973
134.859
134.955
134.838
134.92
134.804
134.877
134.765
134.838
134.727
134.808
134.693
134.78
134.665
134.752
134.649
134.721
134.686
134.637
134.869
134.36
134.676
134.65
133.923
134.836
134.478
134.898
134.743
134.936
134.834
134.958
134.847
134.943
134.83
134.912
134.799
134.873
134.764
134.839
134.731
134.813
134.702
134.79
134.678
134.764
134.664
134.737
134.704
134.656
134.888
134.379
134.696
134.631
133.905
134.816
134.46
134.879
134.726
134.918
134.82
134.944
134.837
134.933
134.823
134.905
134.795
134.869
134.764
134.84
134.736
134.818
134.711
134.798
134.69
134.775
134.679
134.75
134.72
134.675
134.905
134.396
134.714
134.615
133.889
134.799
134.444
134.862
134.711
134.902
134.807
134.93
134.828
134.923
134.817
134.898
134.793
134.866
134.765
134.84
134.741
134.822
134.719
134.805
134.701
134.785
134.692
134.762
134.735
134.689
134.921
134.412
134.731
134.6
133.876
134.783
134.429
134.846
134.697
134.887
134.795
134.918
134.82
134.914
134.812
134.892
134.791
134.863
134.767
134.84
134.746
134.826
134.727
134.811
134.711
134.793
134.703
134.772
134.747
134.698
134.936
134.427
134.746
134.588
133.865
134.767
134.416
134.831
134.685
134.872
134.785
134.905
134.814
134.905
134.809
134.886
134.79
134.86
134.769
134.841
134.751
134.828
134.735
134.817
134.72
134.8
134.714
134.781
134.758
134.708
134.95
134.44
134.759
134.576
133.857
134.754
134.404
134.817
134.674
134.859
134.775
134.894
134.808
134.896
134.806
134.88
134.79
134.857
134.772
134.84
134.756
134.831
134.743
134.821
134.729
134.807
134.724
134.788
134.768
134.717
134.962
134.451
134.772
134.567
133.85
134.741
134.394
134.803
134.665
134.846
134.768
134.883
134.803
134.888
134.804
134.875
134.792
134.855
134.776
134.84
134.762
134.833
134.75
134.825
134.738
134.812
134.733
134.795
134.778
134.727
134.972
134.462
134.783
134.558
133.845
134.729
134.385
134.791
134.655
134.835
134.76
134.873
134.798
134.88
134.802
134.87
134.793
134.853
134.781
134.84
134.769
134.835
134.758
134.829
134.746
134.817
134.741
134.801
134.787
134.737
134.98
134.472
134.794
134.551
133.841
134.718
134.377
134.777
134.648
134.822
134.755
134.863
134.796
134.872
134.802
134.864
134.797
134.851
134.787
134.841
134.776
134.836
134.765
134.832
134.754
134.821
134.749
134.807
134.796
134.747
134.987
134.48
134.804
134.544
133.837
134.709
134.368
134.767
134.64
134.813
134.748
134.855
134.791
134.866
134.802
134.861
134.801
134.85
134.795
134.843
134.784
134.838
134.773
134.835
134.762
134.825
134.756
134.812
134.804
134.752
134.995
134.489
134.813
134.635
134.802
134.744
134.846
134.79
134.859
134.803
134.856
134.806
134.85
134.803
134.844
134.792
134.84
134.781
134.838
134.77
134.83
134.763
134.818
134.81
134.757
135.003
134.497
134.822
134.795
134.739
134.839
134.787
134.853
134.803
134.852
134.811
134.855
134.812
134.851
134.801
134.842
134.789
134.841
134.778
134.834
134.77
134.823
134.817
134.76
135.011
134.505
134.83
134.833
134.786
134.848
134.805
134.849
134.816
134.857
134.821
134.855
134.81
134.846
134.797
134.846
134.786
134.84
134.777
134.83
134.824
134.767
135.019
134.513
134.837
134.829
134.859
134.818
134.848
134.805
134.849
134.793
134.844
134.785
134.835
134.832
134.772
135.026
134.52
134.844
134.865
134.827
134.853
134.812
134.854
134.8
134.852
134.792
134.845
134.839
134.78
135.032
134.528
134.85
134.833
134.859
134.819
134.859
134.808
134.859
134.803
134.852
134.847
134.785
135.039
134.534
134.855
134.866
134.825
134.866
134.814
134.868
134.811
134.861
134.854
134.794
135.045
134.541
134.86
134.821
134.874
134.82
134.868
134.861
134.8
135.05
134.547
134.865
-38.7002
-42.3958
-39.6714
-30.5551
-21.5414
-13.9606
-7.35132
-2.32981
1.22993
3.51552
4.87124
5.48866
5.93814
6.50191
7.10384
7.83524
8.6861
9.62466
10.6606
11.8045
13.0985
14.5681
16.2594
18.1678
20.3236
22.7074
25.3746
28.8756
35.8551
57.1341
154.211
99.3489
69.8787
47.4361
37.1798
29.6878
25.2448
22.931
21.9311
21.7185
21.9119
22.0956
22.3149
22.5688
22.8687
23.2403
23.7514
24.3679
25.197
26.1796
27.4951
28.9247
30.907
32.7991
35.6939
37.932
42.127
44.3961
50.5145
53.6224
163.192
111.669
79.5406
61.0978
50.7597
44.7301
41.2636
39.4634
38.2509
37.2178
36.361
35.6795
35.0652
34.5594
34.2244
34.016
34.0165
34.1573
34.5448
35.0755
35.9641
36.8839
38.3867
39.5948
41.8549
43.1313
46.2622
47.6531
51.0253
54.2637
155.309
128.718
98.7153
82.8857
70.2552
63.3409
58.5942
55.8589
53.6601
51.9823
50.5971
49.5034
48.5144
47.681
47.0449
46.5944
46.3918
46.3787
46.6732
47.1027
47.9601
48.7705
50.285
51.304
53.6048
54.4614
57.606
57.7717
61.1058
59.5206
153.117
141.433
114.716
101.434
88.0804
81.213
75.9846
72.4275
69.3789
66.6959
64.288
62.2814
60.5753
59.1
57.9197
57.0025
56.3934
56.0039
55.9689
56.0586
56.6177
57.0717
58.2833
58.8579
60.8091
61.1238
63.8283
63.5549
66.3255
65.1493
159.688
156.895
134.066
121.953
108.539
100.499
93.9031
88.7195
84.2804
80.408
77.0862
74.2501
71.9591
69.9916
68.4016
67.1324
66.2256
65.5621
65.2953
65.1318
65.4956
65.6687
66.7005
66.9348
68.7019
68.5766
71.0824
70.1957
72.8457
70.9547
173.164
174.646
155.924
142.485
128.745
118.859
110.659
103.779
98.0084
93.0251
88.8275
85.2382
82.2637
79.7829
77.7546
76.1005
74.8595
73.8768
73.33
72.8681
72.9805
72.8413
73.6311
73.5156
75.0405
74.5442
76.8177
75.6349
78.1318
76.3618
189.209
190.293
175.66
159.895
146.177
134.438
124.937
116.643
109.849
103.97
99.0927
94.8974
91.4664
88.6151
86.259
84.303
82.7995
81.5578
80.7867
80.0745
79.9832
79.5756
80.173
79.7562
81.1025
80.284
82.3801
80.8895
83.3186
81.422
200.104
199.07
188.204
171.383
158.472
145.826
135.898
126.871
119.608
113.21
107.94
103.358
99.5668
96.4076
93.785
91.5671
89.8315
88.3509
87.3702
86.4192
86.1342
85.4719
85.8966
85.2027
86.3756
85.2981
87.2361
85.5564
87.9248
86.0646
202.855
199.506
191.911
176.153
165.338
152.931
143.538
134.446
127.235
120.676
115.293
110.544
106.587
103.196
100.405
98.003
96.1022
94.4387
93.298
92.1516
91.7119
90.8368
91.1082
90.1936
91.2341
89.9343
91.7395
89.8928
92.2222
90.337
198.681
194.033
189.587
176.226
168.021
156.62
148.4
139.739
132.975
126.54
121.275
116.508
112.504
109.018
106.143
103.621
101.605
99.799
98.5335
97.2223
96.6586
95.5929
95.7437
94.6385
95.5516
94.0917
95.7772
93.8308
96.0913
94.2463
191.513
186.902
184.718
173.944
168.07
157.99
151.189
143.202
137.112
130.988
126.008
121.359
117.451
113.958
111.068
108.493
106.419
104.52
103.174
101.738
101.082
99.8686
99.9244
98.6663
99.4807
97.8906
99.4708
97.45
99.6443
97.8311
184.305
180.144
179.32
170.713
166.67
157.928
152.506
145.285
139.971
134.269
129.683
125.244
121.516
118.093
115.255
112.678
110.593
108.64
107.249
105.721
105.005
103.676
103.658
102.278
103.013
101.327
102.812
100.759
102.88
101.109
177.924
174.219
174.181
167.271
164.604
157.051
152.826
146.372
141.839
136.603
132.469
128.299
124.818
121.535
118.785
116.25
114.195
112.225
110.826
109.238
108.489
107.074
107.011
105.534
106.209
104.452
105.853
103.788
105.834
104.113
172.451
169.143
169.528
163.908
162.242
155.732
152.524
146.77
142.967
138.204
134.536
130.662
127.458
124.339
121.729
119.274
117.285
115.328
113.948
112.327
111.57
110.094
110.006
108.458
109.088
107.284
108.61
106.553
108.527
106.859
167.747
164.812
165.424
160.792
159.835
154.203
151.8
146.698
143.565
139.244
136.029
132.459
129.545
126.616
124.175
121.823
119.924
118.005
116.669
115.038
114.295
112.779
112.682
111.088
111.684
109.854
111.114
109.079
110.986
109.37
163.712
161.103
161.836
157.954
157.515
152.611
150.856
146.319
143.752
139.858
137.078
133.805
131.183
128.461
126.198
123.961
122.173
120.307
119.032
117.411
116.698
115.162
115.071
113.448
114.022
112.181
113.384
111.383
113.227
111.663
160.236
157.892
158.727
155.387
155.322
151.034
149.794
145.751
143.677
140.166
137.776
134.788
132.449
129.926
127.857
125.746
124.08
122.283
121.084
119.487
118.819
117.276
117.204
115.567
116.128
114.291
115.442
113.486
115.273
113.757
157.229
155.082
156.045
153.084
153.305
149.522
148.693
145.075
143.428
140.251
138.215
135.491
133.421
131.091
129.214
127.232
125.695
123.975
122.862
121.299
120.691
119.151
119.106
117.467
118.022
116.201
117.305
115.404
117.119
115.662
154.613
152.634
153.7
151.028
151.461
148.1
147.595
144.344
143.048
140.176
138.457
135.971
134.155
132.009
130.319
128.465
127.06
125.422
124.402
122.881
122.332
120.812
120.801
119.172
119.727
117.931
118.992
117.153
118.801
117.401
152.336
150.494
151.636
149.193
149.786
146.779
146.532
143.598
142.606
139.994
138.557
136.286
134.701
132.727
131.216
129.487
128.213
126.659
125.734
124.262
123.779
122.284
122.312
120.7
121.26
119.495
120.518
118.746
120.323
119
150.335
148.607
149.813
147.559
148.269
145.562
145.519
142.858
142.117
139.739
138.548
136.473
135.1
133.283
131.94
130.331
129.187
127.715
126.888
125.466
125.054
123.588
123.659
122.07
122.638
120.909
121.899
120.195
121.706
120.456
148.581
146.962
148.2
146.103
146.899
144.448
144.568
142.143
141.615
139.44
138.468
136.564
135.385
133.709
132.528
131.028
130.009
128.615
127.887
126.517
126.176
124.743
124.859
123.298
123.877
122.187
123.149
121.511
122.962
121.78
147.043
145.504
146.763
144.807
145.663
143.431
143.684
141.461
141.115
139.117
138.335
136.585
135.58
134.035
133.001
131.604
130.705
129.388
128.753
127.435
127.165
125.767
125.928
124.398
124.99
123.341
124.279
122.705
124.1
122.987
145.677
144.227
145.486
143.65
144.55
142.506
142.866
140.819
140.627
138.782
138.169
136.554
135.706
134.279
133.38
132.078
131.293
130.048
129.503
128.237
128.037
126.675
126.882
125.384
125.99
124.383
125.302
123.787
125.131
124.081
144.467
143.101
144.349
142.619
143.55
141.666
142.115
140.218
140.16
138.448
137.983
136.486
135.78
134.457
133.685
132.469
131.79
130.613
130.156
128.938
128.806
127.48
127.732
126.267
126.889
125.323
126.226
124.764
126.071
125.08
143.393
142.105
143.336
141.698
142.65
140.905
141.427
139.661
139.717
138.12
137.787
136.394
135.816
134.585
133.929
132.79
132.212
131.097
130.723
129.551
129.485
128.195
128.49
127.059
127.697
126.171
127.062
125.645
126.924
125.998
142.437
141.219
142.433
140.874
141.843
140.215
140.799
139.146
139.301
137.805
137.588
136.284
135.823
134.67
134.124
133.051
132.572
131.512
131.217
130.088
130.085
128.829
129.167
127.768
128.422
126.934
127.82
126.444
127.694
126.821
141.585
140.431
141.626
140.138
141.118
139.591
140.227
138.673
138.913
137.504
137.39
136.166
135.809
134.723
134.282
133.267
132.879
131.868
131.648
130.559
130.616
129.393
129.77
128.404
129.073
127.623
128.504
127.158
128.401
127.566
140.826
139.727
140.906
139.477
140.474
139.023
139.709
138.238
138.553
137.22
137.198
136.042
135.78
134.753
134.412
133.445
133.144
132.175
132.025
130.973
131.086
129.894
130.309
128.975
129.657
128.244
129.12
127.801
129.042
128.242
140.149
139.097
140.263
138.872
139.907
138.51
139.239
137.84
138.221
136.954
137.014
135.917
135.742
134.768
134.515
133.593
133.369
132.438
132.356
131.336
131.502
130.34
130.79
129.487
130.182
128.804
129.675
128.383
129.622
128.853
139.544
138.532
139.685
138.331
139.399
138.047
138.813
137.477
137.915
136.706
136.839
135.794
135.698
134.771
134.596
133.714
133.561
132.663
132.645
131.656
131.872
130.738
131.22
129.946
130.653
129.309
130.176
128.908
130.148
129.406
139.002
138.026
139.178
137.835
138.944
137.627
138.428
137.146
137.634
136.475
136.675
135.673
135.65
134.763
134.659
133.814
133.727
132.858
132.899
131.938
132.2
131.092
131.604
130.359
131.076
129.765
130.627
129.381
130.622
129.905
138.518
137.571
138.724
137.403
138.529
137.251
138.077
136.845
137.377
136.263
136.521
135.558
135.601
134.748
134.709
133.895
133.874
133.027
133.123
132.186
132.491
131.407
131.947
130.729
131.455
130.175
131.032
129.81
131.051
130.355
138.084
137.161
138.316
137.017
138.156
136.911
137.76
136.572
137.143
136.067
136.378
135.448
135.553
134.727
134.749
133.961
134.001
133.173
133.321
132.405
132.751
131.689
132.255
131.061
131.797
130.545
131.399
130.196
131.439
130.761
137.695
136.792
137.951
136.672
137.819
136.607
137.472
136.324
136.928
135.887
136.245
135.344
135.505
134.702
134.782
134.015
134.112
133.301
133.496
132.599
132.982
131.94
132.53
131.359
132.104
130.881
131.725
130.545
131.788
131.127
137.346
136.46
137.625
136.362
137.516
136.331
137.213
136.099
136.734
135.722
136.124
135.247
135.458
134.675
134.809
134.059
134.208
133.412
133.651
132.77
133.188
132.164
132.776
131.626
132.38
131.175
132.028
130.861
132.104
131.458
137.034
136.161
137.332
136.084
137.243
136.084
136.978
135.896
136.557
135.572
136.012
135.156
135.412
134.646
134.831
134.094
134.293
133.509
133.789
132.922
133.371
132.365
132.996
131.864
132.63
131.438
132.3
131.146
132.389
131.757
136.756
135.907
137.052
135.835
136.996
135.86
136.769
135.71
136.397
135.434
135.909
135.071
135.368
134.616
134.849
134.121
134.368
133.596
133.912
133.057
133.535
132.544
133.192
132.08
132.853
131.676
132.546
131.404
132.647
132.027
136.509
135.688
136.787
135.614
136.771
135.655
136.583
135.543
136.252
135.309
135.816
134.992
135.327
134.585
134.865
134.143
134.434
133.673
134.022
133.176
133.682
132.704
133.369
132.272
133.053
131.89
132.767
131.635
132.879
132.27
136.285
135.472
136.571
135.415
136.57
135.47
136.416
135.392
136.122
135.195
135.731
134.919
135.289
134.554
134.878
134.158
134.491
133.739
134.12
133.282
133.813
132.848
133.526
132.447
133.233
132.083
132.965
131.845
133.088
132.489
136.082
135.277
136.377
135.234
136.389
135.305
136.265
135.255
136.003
135.091
135.653
134.851
135.255
134.522
134.891
134.169
134.538
133.794
134.207
133.376
133.93
132.976
133.668
132.604
133.392
132.256
133.144
132.034
133.278
132.687
135.9
135.102
136.201
135.071
136.228
135.154
136.13
135.132
135.896
134.997
135.583
134.788
135.224
134.492
134.903
134.175
134.575
133.84
134.285
133.46
134.035
133.09
133.795
132.74
133.542
132.411
133.306
132.203
133.448
132.865
135.735
134.944
136.043
134.923
136.083
135.023
136.006
135.021
135.798
134.911
135.519
134.73
135.197
134.465
134.915
134.176
134.606
133.879
134.354
133.533
134.129
133.192
133.909
132.863
133.675
132.551
133.451
132.357
133.602
133.026
135.588
134.802
135.902
134.788
135.957
134.901
135.894
134.921
135.71
134.832
135.461
134.676
135.175
134.447
134.92
134.176
134.64
133.913
134.417
133.598
134.213
133.283
134.012
132.972
133.795
132.676
133.583
132.494
133.741
133.172
135.455
134.674
135.774
134.666
135.842
134.792
135.794
134.829
135.632
134.761
135.41
134.627
135.156
134.435
134.92
134.185
134.674
133.943
134.473
133.656
134.289
133.364
134.105
133.07
133.903
132.789
133.701
132.619
133.866
133.303
135.335
134.559
135.659
134.558
135.739
134.692
135.702
134.744
135.563
134.696