/*--------------------------------*- C++ -*----------------------------------*\
  =========                 |
  \\      /  F ield         | OpenFOAM: The Open Source CFD Toolbox
   \\    /   O peration     | Website:  https://openfoam.org
    \\  /    A nd           | Version:  10
     \\/     M anipulation  |
\*---------------------------------------------------------------------------*/
FoamFile
{
    format      ascii;
    class       surfaceScalarField;
    location    "0.1";
    object      phi;
}
// * * * * * * * * * * * * * * * * * * * * * * * * * * * * * * * * * * * * * //

dimensions      [0 3 -1 0 0 0 0];

internalField   nonuniform List<scalar> 
343762
(
0.0203608
-0.0666279
0.0143921
-0.00991342
-0.0115739
0.0294747
0.000978187
0.017935
-0.016423
0.0454943
-0.0065963
0.0140077
-0.00670101
0.0362078
-0.00801812
-0.00149765
0.00845349
0.0262312
-0.00677803
-0.0159478
0.0228071
0.0164829
-0.00576502
-0.0293706
0.0355268
0.00754457
-0.00489316
-0.0411797
0.04631
0.000144918
-0.00423198
-0.0511298
0.0554294
-0.0059857
-0.00352056
-0.0591065
0.0622167
-0.0102611
-0.00271483
-0.0647388
0.0667497
-0.0135079
-0.00181505
-0.0682684
0.0693807
-0.0161975
-0.000900285
-0.0701373
0.0706603
-0.0186302
-0.00021197
-0.0709516
0.0710527
-0.021169
0.000446163
-0.07095
0.0707125
-0.0239997
0.00110094
-0.0703026
0.0697874
-0.0271828
0.00173676
-0.0691286
0.0683977
-0.0306776
0.0023282
-0.0675481
0.066651
-0.0343619
0.00284657
-0.0656477
0.0646071
-0.0381808
0.00331472
-0.0634564
0.0622583
-0.0421516
0.00377782
-0.0609261
0.059529
-0.0463249
0.00426461
-0.0579728
0.0563184
-0.0507255
0.00477465
-0.0544556
0.0524699
-0.0553558
0.00530243
-0.050255
0.0478577
-0.0601499
0.00581794
-0.0451308
0.042202
-0.0650407
0.00634327
-0.0389766
0.0354116
-0.0697965
0.00679571
-0.0312399
0.0267698
-0.0742562
0.00732495
-0.0219886
0.016294
-0.077641
0.00767286
-0.00855761
0.00220387
-0.0794502
0.00671237
0.00185467
-0.0043862
-0.0699184
0.00787578
0.0327648
-0.0180856
0.0122349
-0.0269141
-0.083067
0.0208486
-0.0143667
0.11285
-0.0362645
-0.0790303
0.00405829
0.00414611
0.102386
-0.0315601
-0.0630333
-0.0170097
0.0243905
0.0819334
-0.0262808
-0.0471821
-0.0329938
0.0407691
0.061101
-0.0216942
-0.0324153
-0.0478917
0.0546834
0.0430136
-0.01739
-0.0201342
-0.060832
0.0664102
0.0281501
-0.0135942
-0.0105044
-0.0713399
0.0755857
0.0165788
-0.0103202
-0.00320605
-0.0791714
0.0820217
0.00798822
-0.0076325
0.00219289
-0.0843027
0.0859554
0.00163975
-0.00548533
0.00650009
-0.0872029
0.0879992
-0.00341279
-0.00388367
0.0102846
-0.0884276
0.0884896
-0.00797781
-0.00236888
0.0140112
-0.0882726
0.0877966
-0.0125736
-0.000961612
0.0179293
-0.0871363
0.0863189
-0.0173054
0.000193433
0.0220805
-0.0853691
0.0843304
-0.0220875
0.00104573
0.0263822
-0.0832273
0.0820882
-0.0267961
0.00155309
0.030746
-0.0809086
0.0797034
-0.031418
0.00187723
0.0351212
-0.0784576
0.0771783
-0.0360051
0.00216317
0.0395378
-0.0758375
0.0744473
-0.0406366
0.002489
0.0440619
-0.0729689
0.0714105
-0.0453727
0.00286931
0.0487503
-0.0697223
0.0679396
-0.0502418
0.00327421
0.0536112
-0.0660003
0.0639207
-0.0552305
0.00369893
0.0586293
-0.0616182
0.0591804
-0.0603012
0.00410974
0.0637153
-0.0565095
0.0536135
-0.0653598
0.00454046
0.0687857
-0.0503468
0.0469227
-0.0702912
0.00492957
0.0735779
-0.0432058
0.0391136
-0.0748497
0.00536403
0.0779067
-0.034329
0.0294938
-0.0787715
0.00569995
0.0810085
-0.0244831
0.0187476
-0.0814743
0.00620128
0.0823382
-0.0111023
0.0066516
-0.0826647
0.00477726
0.0760689
0.00148492
-0.0794416
0.00700971
-0.00512197
-0.0411283
-0.00226478
0.0592005
-0.0158075
-0.133509
0.00268373
0.0052623
0.147206
-0.0216433
-0.119341
-0.0190378
0.0250845
0.130794
-0.0174996
-0.0939794
-0.0364527
0.0431671
0.101038
-0.0137734
-0.0694688
-0.0505311
0.0569079
0.0742354
-0.0111434
-0.048904
-0.0633123
0.068814
0.0522567
-0.00885434
-0.0321832
-0.0741092
0.0783949
0.0347056
-0.0068081
-0.0193262
-0.0821989
0.0849653
0.0214953
-0.00493541
-0.00990472
-0.0871549
0.0883915
0.0119537
-0.00328561
-0.00297651
-0.0891342
0.0891443
0.00483643
-0.00187007
0.00253061
-0.0889639
0.0883653
-0.00117939
-0.000752615
0.00760071
-0.0876316
0.0866179
-0.00652122
-6.5776e-05
0.0125372
-0.0856021
0.0844156
-0.0116294
0.000278708
0.0173765
-0.0832931
0.0820664
-0.0165138
0.000364024
0.0220722
-0.0809183
0.0796831
-0.0212326
0.000395782
0.0266323
-0.0785233
0.07727
-0.0258672
0.000488247
0.0311438
-0.0760809
0.0747847
-0.0304908
0.000643212
0.0356903
-0.0735291
0.0721533
-0.0351471
0.00083267
0.040328
-0.0707885
0.0692965
-0.0398566
0.00102057
0.0450767
-0.0677913
0.0661349
-0.0446221
0.00120188
0.0499316
-0.0644229
0.0625617
-0.0494343
0.00136387
0.0548589
-0.0606276
0.0584991
-0.0542639
0.00153352
0.0598094
-0.0562244
0.0537925
-0.0590642
0.00168676
0.0646819
-0.0512312
0.0484113
-0.0637375
0.0018754
0.0693567
-0.0453002
0.0420747
-0.0681676
0.00203646
0.073595
-0.038719
0.0349873
-0.072132
0.00226871
0.0771514
-0.0306361
0.0264323
-0.0754229
0.00247519
0.0795523
-0.0223665
0.0176221
-0.0776446
0.00283678
0.080817
0.00780659
-0.0791417
0.00141681
-0.0108987
0.0792754
0.00396397
-0.0783237
0.00261643
-0.00753206
-0.071414
0.00283527
0.0794713
-0.0108926
-0.155522
-0.00820015
0.0183392
0.159698
-0.0143152
-0.138305
-0.0348161
0.0413751
0.142197
-0.0104504
-0.104947
-0.0506408
0.0571615
0.106606
-0.00818024
-0.0765064
-0.0642167
0.0699397
0.0772117
-0.00642832
-0.053453
-0.0756239
0.0801604
0.0536736
-0.00475714
-0.0353414
-0.0842825
0.0871334
0.0356383
-0.00314775
-0.0219294
-0.089286
0.0902744
0.0225995
-0.00165847
-0.012267
-0.09064
0.0901606
0.0132669
-0.000520572
-0.00495506
-0.0893378
0.0880408
0.00616409
8.79769e-05
0.00101533
-0.0866881
0.0853112
0.000132383
0.000229137
0.0064999
-0.0839481
0.0825276
-0.00511875
3.92871e-05
0.011533
-0.0812321
0.0799065
-0.0100445
-0.000162866
0.0162987
-0.0787023
0.0774527
-0.0147805
-0.000268608
0.0209194
-0.0762896
0.0750605
-0.0194143
-0.000275971
0.0254819
-0.0738903
0.0726378
-0.0239979
-0.000231496
0.0300409
-0.0714223
0.070117
-0.0285609
-0.000174712
0.0346246
-0.0688287
0.0674374
-0.0331213
-0.000112001
0.0392461
-0.0660336
0.0645279
-0.0376892
-5.11297e-05
0.0439015
-0.0629909
0.0613284
-0.0422614
2.24299e-05
0.0485775
-0.0595889
0.0577356
-0.0468291
0.000104909
0.0532411
-0.0558075
0.0537109
-0.0513474
0.000202877
0.0578439
-0.0514586
0.0491089
-0.0557653
0.000271069
0.0622829
-0.0466583
0.0439779
-0.0599877
0.000385106
0.066454
-0.0410038
0.0380233
-0.0639209
0.000447373
0.0701422
-0.0350073
0.0316246
-0.0673683
0.00060875
0.0731929
-0.0275865
0.023922
-0.0702092
0.000680751
0.0752782
0.0164289
-0.0722157
0.00112071
-0.0206121
0.07691
0.0077878
-0.073966
-0.000762108
-0.00996971
0.0764079
0.00465276
-0.0739136
0.00129929
-0.00844633
-0.0846249
0.00459658
0.0876619
-0.00763355
-0.16084
-0.0143342
0.0266061
0.159318
-0.0107499
-0.143247
-0.0447977
0.0538014
0.14145
-0.00720621
-0.106562
-0.0625899
0.0691613
0.104924
-0.0049337
-0.0765541
-0.075943
0.081035
0.0750304
-0.00356833
-0.0528106
-0.0855869
0.0886388
0.0517918
-0.0020332
-0.0350154
-0.0908832
0.0917025
0.0348493
-0.00065323
-0.0223194
-0.0917597
0.0908333
0.0229039
0.000341897
-0.0131675
-0.0895481
0.087784
0.0142617
0.000669914
-0.00611974
-0.0860244
0.0841107
0.00755533
0.000478118
-0.000327276
-0.0823683
0.0807005
0.00189337
0.000101775
0.00488873
-0.0793005
0.0778741
-0.00324833
-0.000214058
0.00972708
-0.0766079
0.075319
-0.00804895
-0.000389211
0.0143444
-0.0741552
0.0729373
-0.0127071
-0.000419329
0.0188527
-0.0718026
0.0705917
-0.017277
-0.000364856
0.0233102
-0.0694357
0.06819
-0.0217898
-0.000274683
0.0277509
-0.0669758
0.06567
-0.0262621
-0.000182931
0.0321919
-0.0643774
0.0629824
-0.0307002
-9.6702e-05
0.0366372
-0.0615711
0.0600668
-0.0351046
-2.83672e-05
0.0410719
-0.0585328
0.0568744
-0.0394667
5.32234e-05
0.0454812
-0.0551453
0.0533214
-0.0437644
0.000107128
0.0498159
-0.051439
0.049398
-0.0479561
0.000181206
0.0540259
-0.0472064
0.0449591
-0.0519944
0.000215732
0.0580161
-0.0426511
0.040121
-0.055794
0.000307907
0.0617016
-0.0372979
0.0345504
-0.0592799
0.000325847
0.064912
-0.0318581
0.0287719
-0.0623021
0.000476285
0.067569
0.021734
-0.0648118
0.000490828
-0.024982
0.069479
0.0151491
-0.0666377
0.000995263
-0.0189857
0.0712688
0.00722809
-0.0684667
-0.00128067
-0.00874959
0.0713091
0.00472645
-0.0686014
0.00112802
-0.00856217
-0.0894294
0.00477666
0.0903847
-0.00573196
-0.155629
-0.0178016
0.031983
0.149966
-0.00851838
-0.13746
-0.0506983
0.0620449
0.131514
-0.00540027
-0.101876
-0.0714276
0.0781239
0.0978591
-0.00267945
-0.0726053
-0.0841394
0.0879636
0.070136
-0.00135481
-0.0502274
-0.0906785
0.0916621
0.0493326
-8.8803e-05
-0.0342205
-0.0917354
0.0905955
0.0345349
0.000825417
-0.0229063
-0.0890509
0.0869591
0.0239814
0.0010166
-0.0146073
-0.0849202
0.082747
0.0160762
0.000704315
-0.00802971
-0.0808438
0.0789354
0.00967293
0.000265197
-0.00238971
-0.077299
0.0756582
0.00410691
-7.64464e-05
0.00268964
-0.0743787
0.0730504
-0.00107416
-0.000287155
0.00751989
-0.0718848
0.0706623
-0.00588724
-0.000410214
0.0121528
-0.0695632
0.0683887
-0.0105535
-0.000424756
0.0166625
-0.0673008
0.0661207
-0.0150993
-0.000383003
0.02109
-0.0650003
0.0637779
-0.0195454
-0.000322247
0.0254591
-0.0625914
0.061306
-0.023906
-0.000267667
0.0297789
-0.0600402
0.0586643
-0.0281881
-0.000214929
0.0340508
-0.0572783
0.055797
-0.0323939
-0.000175568
0.0382627
-0.054297
0.0526728
-0.0365117
-0.000126731
0.0423945
-0.0509831
0.0492149
-0.0405244
-0.00010198
0.0464032
-0.0474045
0.0454422
-0.0443914
-4.95869e-05
0.0502453
-0.0433361
0.0412089
-0.0480766
-4.15312e-05
0.0538367
-0.0390599
0.0366837
-0.0515018
4.12559e-05
0.0571204
-0.0340081
0.0314889
-0.0546153
1.41482e-05
0.0599488
0.026262
-0.0572979
0.00018788
-0.0291008
0.0623154
0.0197678
-0.0595466
0.000116161
-0.0226527
0.0640443
0.0138814
-0.061213
0.000791305
-0.017504
0.0658594
0.00658207
-0.0630244
-0.00198588
-0.00743115
0.0659241
0.00471971
-0.0631747
0.00113172
-0.00860083
-0.0910155
0.00473187
0.0913476
-0.00506394
-0.142905
-0.0199802
0.0352704
0.134881
-0.00726642
-0.124468
-0.0530539
0.0651291
0.116891
-0.00449756
-0.093269
-0.0745906
0.0807597
0.0888187
-0.00171885
-0.0675216
-0.0853822
0.087543
0.0656244
-0.000263525
-0.0483488
-0.0884728
0.0878061
0.0482177
0.000797809
-0.0345808
-0.0865764
0.0845878
0.0354722
0.0010971
-0.024528
-0.0826195
0.080421
0.0258884
0.000838142
-0.0167732
-0.0785104
0.0765644
0.0182943
0.0004249
-0.0103368
-0.0749686
0.0733311
0.0118949
7.93502e-05
-0.0046628
-0.0719569
0.0705242
0.00623924
-0.00014374
0.000392862
-0.0693018
0.0681513
0.00102263
-0.000264926
0.00537328
-0.0671123
0.0659835
-0.0038614
-0.000383011
0.0100136
-0.0649734
0.0638625
-0.00849689
-0.000405854
0.0144775
-0.0628445
0.0617162
-0.0129811
-0.000368194
0.018814
-0.0606546
0.059476
-0.0173301
-0.000305358
0.0230519
-0.0583393
0.0570939
-0.021561
-0.000245546
0.0272037
-0.0558759
0.0545382
-0.0256806
-0.000185415
0.0312722
-0.0531973
0.0517595
-0.0296904
-0.00014392
0.0352431
-0.0503158
0.048743
-0.0335774
-9.29482e-05
0.0390988
-0.0471131
0.0454163
-0.0373277
-7.43707e-05
0.0427984
-0.0436999
0.0418266
-0.0409034
-2.17246e-05
0.0463079
-0.0398154
0.0378152
-0.0442784
-2.93815e-05
0.0495518
-0.035835
0.0336067
-0.0473843
6.08694e-05
0.0524946
0.028761
-0.0501867
3.82795e-06
-0.0310728
0.0550166
0.024025
-0.0525884
0.000202739
-0.0266559
0.0571487
0.0179825
-0.0546179
3.75005e-05
-0.0205509
0.0587267
0.0126556
-0.0561318
0.00088312
-0.0161336
0.0604971
0.00591896
-0.0578743
-0.00242197
-0.00611982
0.0605666
0.00464619
-0.0579734
0.00131503
-0.00855445
-0.0913744
0.00550993
0.0906493
-0.00478481
-0.12671
-0.0213132
0.0360814
0.11871
-0.00676835
-0.109655
-0.0513191
0.062158
0.102986
-0.00417001
-0.0847605
-0.0705007
0.0754676
0.0813182
-0.00152452
-0.0639128
-0.0787074
0.0797704
0.0627687
8.10144e-05
-0.0479507
-0.07996
0.0789498
0.0481434
0.000817581
-0.0359127
-0.0777295
0.0760219
0.0367756
0.000844645
-0.026583
-0.0745404
0.0728604
0.0277221
0.000540859
-0.0190151
-0.0714901
0.0700039
0.0202526
0.000248674
-0.012552
-0.0688283
0.0675289
0.0138303
2.10951e-05
-0.00680552
-0.066461
0.0652696
0.0081231
-0.000126245
-0.00157285
-0.0642663
0.0631558
0.00290808
-0.000224676
0.00331561
-0.0623012
0.0612906
-0.00199638
-0.000308596
0.00795389
-0.0603955
0.0593671
-0.00658096
-0.000344506
0.0123695
-0.0584351
0.057376
-0.0109848
-0.000325537
0.0166216
-0.0563899
0.0552726
-0.015222
-0.000282402
0.0207396
-0.0542032
0.0530163
-0.0193105
-0.000242121
0.0247356
-0.0518645
0.0505832
-0.0232581
-0.000196148
0.0286137
-0.0493054
0.0479293
-0.0270684
-0.000169241
0.0323606
-0.0465602
0.0450538
-0.0307295
-0.000124729
0.0359638
-0.0434985
0.0418866
-0.0342319
-0.000120036
0.0393858
-0.0402778
0.0384998
-0.0375412
-6.66523e-05
0.0426038
-0.0365926
0.0347209
-0.0406398
-9.22637e-05
0.0455521
0.0308288
-0.0434645
-4.71217e-06
-0.0329117
0.0482093
0.0263053
-0.0460087
-8.22947e-05
-0.0284236
0.0504746
0.0220139
-0.0481715
0.000150459
-0.0244675
0.0524065
0.0163675
-0.0500224
-0.000113738
-0.0186378
0.0538339
0.0115146
-0.0513917
0.000942684
-0.0148995
0.0555234
0.00531386
-0.0530447
-0.00292256
-0.00486998
0.0555248
0.00457662
-0.0530841
0.0015166
-0.00853395
-0.0888463
0.00698424
0.0856871
-0.003825
-0.111319
-0.0211755
0.0335948
0.104257
-0.00535693
-0.0970856
-0.0451278
0.053494
0.0915095
-0.00279
-0.0781122
-0.0602503
0.0642948
0.0749624
-0.000894695
-0.0614251
-0.0670419
0.0681094
0.060096
0.000261647
-0.0478676
-0.0687091
0.0683077
0.0476142
0.000654777
-0.0370132
-0.0678285
0.0668814
0.0373499
0.000610456
-0.0281639
-0.0661794
0.065159
0.0288091
0.000375145
-0.0207483
-0.0643868
0.0633796
0.021566
0.0001895
-0.014314
-0.0626346
0.0616768
0.0152441
2.76746e-05
-0.00857025
-0.0609187
0.0599753
0.00959769
-8.40525e-05
-0.00332424
-0.0592097
0.0582597
0.00444671
-0.000172461
0.00150793
-0.0574937
0.0566408
-0.000413441
-0.000241632
0.00608791
-0.0558757
0.0549476
-0.00486914
-0.000290737
0.0104151
-0.0541157
0.0531408
-0.00915433
-0.000285803
0.014547
-0.0522449
0.0512031
-0.0132528
-0.000252312
0.018517
-0.0502148
0.0491
-0.017183
-0.000219195
0.0223394
-0.0480283
0.046816
-0.0209527
-0.000174414
0.0260203
-0.0456135
0.0443112
-0.0245663
-0.000151599
0.0295476
-0.0430286
0.0415987
-0.0280128
-0.000104904
0.0329132
-0.0401269
0.0386085
-0.0312864
-0.000108453
0.0360827
-0.0371157
0.0354382
-0.0343548
-5.03508e-05
0.0390421
0.0318935
-0.0372106
-9.21896e-05
-0.0336327
0.0417302
0.0283035
-0.0397947
1.6113e-05
-0.0302551
0.0441494
0.0240828
-0.0421161
-0.000102035
-0.0260141
0.0461957
0.0201908
-0.0440763
0.000185801
-0.022496
0.0479635
0.0149031
-0.0457753
-0.000204647
-0.0168867
0.0492576
0.0104535
-0.0470136
0.00108306
-0.0137805
0.0508524
0.00476294
-0.0485612
-0.00335964
-0.00369453
0.0508048
0.00450029
-0.0485458
0.00175663
-0.00851599
-0.0812852
0.00730107
0.0760261
-0.00204197
-0.0974883
-0.0188674
0.0283392
0.0906254
-0.00260883
-0.0860987
-0.0359257
0.0418926
0.0804709
-0.000339088
-0.0715622
-0.0478066
0.0517952
0.0679348
-0.000361101
-0.0583139
-0.054762
0.0563197
0.0563426
0.0004136
-0.0468106
-0.057679
0.0580681
0.0458685
0.000553059
-0.037097
-0.0583747
0.0581575
0.036812
0.00050234
-0.0288539
-0.0581724
0.0577411
0.0289787
0.000306495
-0.0217652
-0.0574838
0.0569077
0.0221587
0.000182629
-0.0155201
-0.0565587
0.0559225
0.0161031
5.32259e-05
-0.00990904
-0.0554547
0.0547519
0.0106462
-3.43298e-05
-0.00477038
-0.0542163
0.0534549
0.0056463
-0.000114544
-7.94357e-05
-0.0528262
0.052083
0.000983008
-0.000160455
0.00442386
-0.0514547
0.0506405
-0.00338584
-0.000223817
0.00863063
-0.0499162
0.0490341
-0.00751305
-0.000235446
0.0126252
-0.048236
0.0472786
-0.0114508
-0.000217109
0.0164408
-0.0463798
0.0453469
-0.0152092
-0.000198659
0.0200903
-0.0443643
0.0432303
-0.0187947
-0.000161592
0.023581
-0.0421116
0.0408922
-0.0222123
-0.000149261
0.0269016
-0.0397045
0.038358
-0.0254516
-0.000103448
0.0300487
-0.0369751
0.0355565
-0.0285106
-0.00011955
0.03299
0.0326075
-0.0313589
-5.43304e-05
-0.0341844
0.0357215
0.0292961
-0.0339974
-0.000116841
-0.0309033
0.0381853
0.0259964
-0.0363687
1.26672e-05
-0.0278256
0.0403982
0.022059
-0.0384971
-0.000150253
-0.0238097
0.0422567
0.0185307
-0.0402824
0.000204696
-0.0207098
0.0438839
0.0135765
-0.0418514
-0.000330927
-0.0152779
0.045054
0.00947618
-0.0429755
0.0012186
-0.0127733
0.0465344
0.00427581
-0.0443954
-0.00381085
-0.00260395
0.0464424
0.00443034
-0.04435
0.00199387
-0.00851667
-0.070377
0.00593807
0.0647482
-0.000309324
-0.0838795
-0.0153659
0.0223976
0.0771396
-0.000291881
-0.0749146
-0.0265542
0.0311843
0.0693149
0.000969619
-0.0642106
-0.0371198
0.0413426
0.0604149
-0.000427159
-0.0540707
-0.0443747
0.0461922
0.0516539
0.000599364
-0.04454
-0.0481028
0.049087
0.0430787
0.000477064
-0.0360973
-0.0499446
0.050262
0.0353241
0.000455829
-0.0286488
-0.050815
0.0508477
0.0283461
0.000270016
-0.0220679
-0.050989
0.0507681
0.0220983
0.000190484
-0.0161621
-0.0507552
0.0504021
0.0164395
7.57945e-05
-0.0108007
-0.050187
0.0497036
0.0112766
7.52727e-06
-0.00586382
-0.0493796
0.0487972
0.00651199
-6.57407e-05
-0.00129165
-0.048332
0.047667
0.0020715
-0.00011488
0.00299614
-0.0472011
0.0464927
-0.00212192
-0.000165765
0.00704908
-0.045876
0.0450889
-0.00607168
-0.000190325
0.0108787
-0.0443912
0.0435229
-0.00982765
-0.000182732
0.0145214
-0.0427175
0.0417719
-0.013401
-0.000174811
0.0179882
-0.0408832
0.0398325
-0.0167965
-0.000140989
0.021287
-0.0388017
0.0376706
-0.0200196
-0.000136306
0.0244068
-0.0365824
0.0353226
-0.0230594
-8.76182e-05
0.0273479
0.0327149
-0.025917
-0.000115085
-0.0340306
0.0300796
0.0299872
-0.028563
-3.88072e-05
-0.031465
0.0326062
0.0269036
-0.0310062
-0.000123721
-0.0283799
0.0348701
0.023879
-0.0331895
3.76901e-05
-0.0255974
0.0369054
0.0202092
-0.0351504
-0.000180469
-0.0217837
0.038601
0.0170126
-0.0367821
0.000253262
-0.0190847
0.0401087
0.012369
-0.0382405
-0.000441943
-0.0137953
0.0411769
0.00856695
-0.0392722
0.00138597
-0.0118576
0.0425124
0.00384909
-0.0405233
-0.00424021
-0.00159795
0.0424129
0.00436017
-0.040485
0.00223146
-0.00851947
-0.0594061
0.00432302
0.0544814
0.000601655
-0.0708792
-0.0122834
0.0174959
0.064959
0.000707651
-0.0641332
-0.0189754
0.0232119
0.0591724
0.000724323
-0.056812
-0.0294392
0.0335688
0.0532414
-0.000559045
-0.0491725
-0.0361992
0.0379637
0.0466156
0.000792373
-0.0414418
-0.0401825
0.041532
0.0397141
0.000378142
-0.0342947
-0.0426782
0.0433274
0.033212
0.00043351
-0.0277349
-0.0442493
0.0446167
0.027127
0.000240464
-0.0217736
-0.0450361
0.0450857
0.0215242
0.000199892
-0.0163138
-0.0453404
0.0452196
0.0163411
9.34622e-05
-0.011291
-0.04521
0.0449161
0.0115432
4.17443e-05
-0.00662573
-0.0447769
0.0443552
0.0070707
-2.3258e-05
-0.00226855
-0.0440424
0.0434999
0.00287843
-6.73934e-05
0.0018064
-0.0431181
0.0425226
-0.00109906
-0.000111851
0.00566707
-0.0420169
0.0413266
-0.00483121
-0.000145612
0.00931344
-0.0407285
0.0399502
-0.00838683
-0.000148254
0.0127732
-0.0392377
0.0383812
-0.0117648
-0.000152021
0.0160543
-0.0375875
0.036622
-0.0149663
-0.000122472
0.0191643
-0.0356798
0.0346398
-0.0179964
-0.000127855
0.0220915
0.0324805
-0.0208429
-7.64747e-05
-0.0336526
0.0248395
0.0300672
-0.0235101
-0.000117808
-0.0312788
0.0273785
0.0275566
-0.0259687
-2.74815e-05
-0.0289389
0.0297202
0.0246931
-0.0282334
-0.000139524
-0.0260404
0.0318065
0.0219295
-0.0302471
5.68234e-05
-0.0235458
0.0336852
0.0185144
-0.0320597
-0.000224844
-0.0199151
0.0352378
0.0156185
-0.0335554
0.000302649
-0.0176035
0.0366436
0.0112632
-0.034918
-0.000566295
-0.0124226
0.0376314
0.00769416
-0.0358782
0.00157453
-0.0110219
0.0387718
0.00350614
-0.0369158
-0.00468594
-0.000676217
0.0387033
0.00429457
-0.0369257
0.00245223
-0.00852441
-0.0500561
0.00309517
0.046077
0.000883948
-0.0597411
-0.0100889
0.0139352
0.0549257
0.000969082
-0.0548335
-0.0134565
0.0178384
0.0507298
-0.000278282
-0.0499945
-0.024197
0.0278551
0.0467924
-0.000456019
-0.0441615
-0.0297985
0.0313795
0.0416792
0.000901314
-0.0379707
-0.0337732
0.0353021
0.0361704
0.000271471
-0.0320118
-0.036523
0.0373443
0.0307702
0.000420328
-0.0263341
-0.0385066
0.0390957
0.0255352
0.000209786
-0.0210304
-0.0396826
0.0399242
0.0205845
0.000204374
-0.0160698
-0.0403804
0.0404392
0.0159071
0.000103863
-0.0114373
-0.0405844
0.0404448
0.0115104
6.65432e-05
-0.00709057
-0.0404585
0.0401733
0.00736644
9.3514e-06
-0.00300104
-0.0399866
0.0395598
0.00345681
-2.89621e-05
0.000830852
-0.0392669
0.0387816
-0.000280136
-6.54077e-05
0.00448669
-0.0383728
0.0377721
-0.00377913
-0.000106894
0.0079317
-0.037267
0.0365754
-0.00712342
-0.000116768
0.0111974
-0.0359519
0.0351834
-0.0102988
-0.000130089
0.0142876
-0.0344825
0.0336012
-0.0133037
-0.000102489
0.0172091
0.0317968
-0.0161427
-0.000117583
-0.0327456
0.019949
0.0298238
-0.0188021
-6.11949e-05
-0.0309096
0.0225138
0.0276012
-0.0212888
-0.000116655
-0.0287095
0.0248733
0.0253006
-0.0235726
-9.51065e-06
-0.0265919
0.0270459
0.0226488
-0.0256743
-0.000151668
-0.0238688
0.0289714
0.0201327
-0.0275335
8.47159e-05
-0.0216554
0.0307106
0.0169599
-0.0292131
-0.000267642
-0.0181897
0.0321351
0.0143323
-0.030585
0.000367587
-0.0162501
0.0334502
0.010242
-0.0318584
-0.000687824
-0.0111459
0.0343691
0.00682297
-0.0327402
0.0018003
-0.0102521
0.0353012
0.00326411
-0.0336035
-0.0051179
0.000156048
0.0352899
0.0042313
-0.0336561
0.00265478
-0.00851988
-0.0425585
0.0022107
0.0393814
0.000966394
-0.0507701
-0.00855578
0.0113918
0.0469172
0.00101691
-0.0471974
-0.00953936
0.0142757
0.0438431
-0.0013821
-0.0439479
-0.0205424
0.0235372
0.041132
-0.000178872
-0.0393912
-0.0247286
0.0261296
0.0370909
0.000899237
-0.0344539
-0.0286289
0.0301979
0.0326961
0.000188691
-0.0295095
-0.0313442
0.032233
0.028215
0.000405717
-0.0246459
-0.0335446
0.0342654
0.0237444
0.000180765
-0.0199833
-0.0349298
0.0352988
0.0194105
0.000203732
-0.0155332
-0.0358997
0.0360895
0.0152345
0.000108887
-0.0113132
-0.036342
0.0363226
0.0112483
8.42965e-05
-0.00730924
-0.0364581
0.0362859
0.00744807
3.33526e-05
-0.00351046
-0.0362007
0.0358768
0.00383188
2.51098e-06
3.85487e-05
-0.0356691
0.0352792
0.000375399
-2.40829e-05
0.00349283
-0.0349488
0.0344342
-0.00290509
-7.31179e-05
0.00672509
-0.0340157
0.0334067
-0.00602822
-8.78135e-05
0.00979074
-0.0328661
0.0321822
-0.00899683
-0.000110027
0.0126885
0.0307695
-0.0118047
-8.35284e-05
-0.0315698
0.0154242
0.0291367
-0.0144556
-0.000109074
-0.0299962
0.0179831
0.0273437
-0.016934
-4.66229e-05
-0.0283462
0.0203745
0.0253056
-0.0192497
-0.000118429
-0.0263119
0.0225664
0.0232059
-0.0213694
8.71958e-06
-0.0244116
0.0245847
0.0207593
-0.0233205
-0.000170728
-0.0218527
0.026363
0.018476
-0.0250378
0.000113372
-0.0199146
0.0279761
0.0155323
-0.0265958
-0.00031823
-0.0165944
0.0292823
0.0131434
-0.0278529
0.00043763
-0.0150105
0.0305104
0.00930683
-0.0290415
-0.000819335
-0.00995642
0.0313407
0.00600872
-0.0298319
0.00203084
-0.00954844
0.0321374
0.00306654
-0.0305814
-0.00551659
0.000893997
0.0321579
0.00416906
-0.0306549
0.0028404
-0.00851243
-0.0365694
0.00155321
0.0339952
0.00102096
-0.0436044
-0.00744237
0.00951839
0.0404866
0.00104172
-0.0409801
-0.00672774
0.0118653
0.038222
-0.00237951
-0.0386733
-0.0178729
0.0201639
0.0362219
0.000160344
-0.0350239
-0.0206524
0.0219315
0.0329438
0.000800974
-0.031077
-0.0244981
0.0260098
0.0294214
0.000143772
-0.0269665
-0.0269892
0.0278858
0.0256868
0.000383145
-0.0228211
-0.0292853
0.0300686
0.021881
0.000156951
-0.0187511
-0.0307437
0.0311906
0.0181056
0.000198571
-0.0147946
-0.0318904
0.0321696
0.014405
0.000110482
-0.0109852
-0.0324886
0.0325599
0.010819
9.4893e-05
-0.00733052
-0.0327887
0.0327058
0.00736212
5.12721e-05
-0.00383498
-0.0326997
0.0324674
0.00404383
2.3447e-05
-0.000512982
-0.0323494
0.0320042
0.000859489
-1.30208e-06
0.00266534
-0.0317557
0.0313228
-0.002186
-4.64894e-05
0.00568251
-0.030983
0.0304497
-0.00508615
-6.30728e-05
0.00854522
0.0293797
-0.0078481
-9.27798e-05
-0.029984
0.0112504
0.0281255
-0.0104612
-6.52018e-05
-0.0288494
0.0138033
0.0266553
-0.0129287
-0.000101455
-0.0274285
0.0161871
0.025033
-0.0152328
-3.05084e-05
-0.0259568
0.0184137
0.0231728
-0.0173859
-0.000121891
-0.0240787
0.0204482
0.021265
-0.019352
2.93428e-05
-0.0223905
0.0223231
0.0190158
-0.0211626
-0.000191727
-0.0199846
0.0239655
0.0169477
-0.0227481
0.000147159
-0.0183123
0.025462
0.0142181
-0.0241929
-0.000370281
-0.0151168
0.0266587
0.0120419
-0.0253438
0.000514418
-0.0138712
0.0278055
0.00845309
-0.0264538
-0.000957864
-0.00884688
0.0285471
0.00526375
-0.0271579
0.00225206
-0.00890503
0.0292442
0.00288482
-0.0278169
-0.00587976
0.00156767
0.0292839
0.00410546
-0.0279028
0.00301222
-0.00849877
-0.0317068
0.00105214
0.02958
0.00107467
-0.0378011
-0.00659854
0.00807807
0.0352299
0.00109172
-0.0358673
-0.00468323
0.0101789
0.0335499
-0.0031783
-0.0340973
-0.0158176
0.0174449
0.0319572
0.000512784
-0.0311048
-0.0173191
0.0185495
0.029243
0.000631276
-0.0279308
-0.0211596
0.022551
0.0264022
0.000137311
-0.0244942
-0.0233155
0.0241935
0.023269
0.000347261
-0.0209667
-0.0256414
0.0264355
0.02003
0.000142633
-0.0174254
-0.0270723
0.0275622
0.0167475
0.000188036
-0.0139285
-0.0283259
0.0286598
0.0134825
0.0001121
-0.0105126
-0.0290109
0.0291485
0.010275
0.000100027
-0.00720037
-0.0294469
0.0294326
0.00715092
6.37829e-05
-0.0040045
-0.0294836
0.0293238
0.00412605
3.8255e-05
-0.00094113
-0.0292746
0.0289906
0.00120706
1.80112e-05
0.00199062
-0.0288076
0.0284439
-0.00160166
-2.52201e-05
0.00479009
0.0277055
-0.00428223
-4.1944e-05
-0.0281714
0.00745044
0.0267749
-0.00684147
-7.83014e-05
-0.0273056
0.00996589
0.0256668
-0.00926448
-4.84072e-05
-0.0263198
0.0123409
0.0243492
-0.0115544
-9.62353e-05
-0.0250394
0.014556
0.0228878
-0.0136913
-1.47835e-05
-0.0237377
0.0166258
0.0211975
-0.0156896
-0.000128297
-0.0220055
0.0185122
0.0194707
-0.01751
4.85069e-05
-0.0205214
0.0202539
0.0174081
-0.0191903
-0.000215962
-0.0182557
0.0217679
0.0155336
-0.02065
0.000184292
-0.0168357
0.0231565
0.0130067
-0.0219906
-0.000428403
-0.0137442
0.0242516
0.011021
-0.0230429
0.000593993
-0.0128236
0.0253233
0.00767377
-0.0240804
-0.00110504
-0.00781161
0.0259822
0.00457884
-0.0247046
0.00246038
-0.00831677
0.0265967
0.00271994
-0.0252864
-0.00620724
0.00217703
0.02665
0.00404224
-0.0253815
0.00316984
-0.00848052
-0.0276822
0.000658184
0.0258954
0.0011286
-0.0330098
-0.00593558
0.00692407
0.0308496
0.00117172
-0.031561
-0.00318162
0.00894578
0.0295656
-0.00376876
-0.0301141
-0.0141638
0.0152065
0.0282407
0.000830576
-0.0276199
-0.0145569
0.0158048
0.0259632
0.000408782
-0.0250502
-0.0184385
0.0196706
0.0236557
0.000162469
-0.0221553
-0.0202008
0.0210536
0.0210061
0.000296429
-0.0191518
-0.0225254
0.0232944
0.0182465
0.000136267
-0.0160729
-0.0238602
0.0243696
0.0153908
0.000172613
-0.0129928
-0.0251716
0.0255333
0.0125186
0.000112416
-0.00994354
-0.0258879
0.0260721
0.00965965
9.96774e-05
-0.00695841
-0.0264203
0.0264562
0.00684925
7.32187e-05
-0.00405221
-0.0265463
0.0264459
0.00410501
4.76394e-05
-0.00124461
-0.0264537
0.0262213
0.00144336
3.36117e-05
0.00145049
0.0257882
-0.00113371
-8.55954e-06
-0.0260965
0.0040313
0.0251701
-0.00360181
-2.40375e-05
-0.0255755
0.00649283
0.0243652
-0.00596352
-6.68937e-05
-0.0248276
0.0088234
0.0233904
-0.00820237
-3.35574e-05
-0.0239779
0.0110264
0.0222147
-0.0103217
-9.34016e-05
-0.022826
0.01308
0.0209028
-0.012299
1.1845e-07
-0.021684
0.0150006
0.0193729
-0.0141497
-0.000137622
-0.0200862
0.0167463
0.0178122
-0.015832
6.91169e-05
-0.0187956
0.01836
0.015923
-0.0173868
-0.000242537
-0.0166537
0.0197554
0.0142236
-0.0187311
0.000224589
-0.0154725
0.0210441
0.0118908
-0.0199748
-0.000491736
-0.0124683
0.0220454
0.0100739
-0.0209366
0.000677276
-0.01186
0.0230475
0.00696238
-0.0219062
-0.00125838
-0.00684523
0.0236304
0.00394942
-0.0224574
0.00265585
-0.00777824
0.0241729
0.0025696
-0.0229708
-0.00649747
0.00272581
0.0242386
0.0039789
-0.0230749
0.00331414
-0.00845668
-0.0243006
0.000340176
0.0227818
0.00117865
-0.0289826
-0.00540505
0.00598184
0.0271367
0.00126916
-0.0278503
-0.00207828
0.00799155
0.0261038
-0.00416672
-0.0266388
-0.0127933
0.0133388
0.0249961
0.00109711
-0.0245354
-0.0122457
0.0135618
0.0230662
0.000153092
-0.0224404
-0.0161995
0.01725
0.0211778
0.000212103
-0.0199816
-0.0175444
0.0183765
0.0189177
0.000231904
-0.0174201
-0.0198557
0.0205747
0.0165614
0.000139736
-0.01474
-0.0210496
0.0215666
0.0140742
0.000148669
-0.0120324
-0.0223892
0.0227582
0.0115495
0.000113887
-0.00931841
-0.0230946
0.0233112
0.00900717
9.4681e-05
-0.00663824
-0.0236931
0.0237642
0.00648728
7.98224e-05
-0.00400765
-0.0238775
0.023826
0.00400632
5.28492e-05
-0.00145167
0.0237022
0.00158617
4.47742e-05
-0.0238815
0.00101656
0.0233472
-0.000768973
2.86565e-06
-0.0235977
0.00338994
0.0228372
-0.00303101
-7.84186e-06
-0.0231883
0.00566017
0.0221448
-0.0052028
-5.80123e-05
-0.0225442
0.0078122
0.0212904
-0.00726498
-1.9486e-05
-0.0218182
0.00985003
0.0202449
-0.00922091
-9.2455e-05
-0.0207815
0.011749
0.0190704
-0.0110452
1.44782e-05
-0.0197887
0.0135266
0.0176872
-0.0127545
-0.000148647
-0.0183107
0.0151383
0.0162776
-0.0143047
8.97679e-05
-0.0172009
0.0166317
0.0145494
-0.0157433
-0.00027033
-0.0151675
0.0179161
0.0130102
-0.0169788
0.000265043
-0.0142126
0.0191126
0.0108638
-0.0181333
-0.000559783
-0.0112833
0.0200272
0.00919535
-0.0190107
0.000762332
-0.0109741
0.0209638
0.00631318
-0.0199167
-0.00141709
-0.0059432
0.0214775
0.00337067
-0.0204015
0.00283817
-0.00728478
0.0219558
0.00243093
-0.0208538
-0.00675222
0.00321928
0.0220346
0.00391374
-0.0209676
0.00344377
-0.00842447
-0.021425
8.88884e-05
0.0201163
0.00121976
-0.0255436
-0.00497812
0.00520699
0.0239496
0.00136515
-0.0246086
-0.00125405
0.00721241
0.0230777
-0.00442745
-0.0236016
-0.0116435
0.0117645
0.0221599
0.00132067
-0.0218117
-0.0102984
0.0117147
0.0205098
-0.000114352
-0.0200915
-0.0143399
0.0151979
0.0189535
0.00027996
-0.0179859
-0.0152646
0.0160852
0.0170097
0.000155515
-0.0157954
-0.0175617
0.0182147
0.0149922
0.000150128
-0.013458
-0.018587
0.0191048
0.01282
0.000120175
-0.0110792
-0.0199357
0.0202981
0.0106028
0.00011405
-0.00866619
-0.0206032
0.0208418
0.00834195
8.56129e-05
-0.00626653