/*--------------------------------*- C++ -*----------------------------------*\
  =========                 |
  \\      /  F ield         | OpenFOAM: The Open Source CFD Toolbox
   \\    /   O peration     | Website:  https://openfoam.org
    \\  /    A nd           | Version:  10
     \\/     M anipulation  |
\*---------------------------------------------------------------------------*/
FoamFile
{
    format      ascii;
    class       surfaceScalarField;
    location    "0.1";
    object      phi_0;
}
// * * * * * * * * * * * * * * * * * * * * * * * * * * * * * * * * * * * * * //

dimensions      [0 3 -1 0 0 0 0];

internalField   nonuniform List<scalar> 
343762
(
0.0203211
-0.0663187
0.0143157
-0.0097062
-0.0116198
0.0298976
0.00106025
0.0178159
-0.0162431
0.0455265
-0.0065663
0.0136685
-0.00635977
0.0362289
-0.00798984
-0.00190164
0.00889567
0.0262774
-0.00676015
-0.0164004
0.0232793
0.0165172
-0.00576283
-0.0298471
0.0359977
0.0076166
-0.00489867
-0.0416361
0.0467492
0.000261472
-0.00422767
-0.0515151
0.0557569
-0.00577492
-0.00353043
-0.0593772
0.0624337
-0.010001
-0.0027317
-0.0649072
0.0668756
-0.013212
-0.00184207
-0.0683592
0.0694462
-0.0158852
-0.000935924
-0.070183
0.0706894
-0.0183236
-0.000241553
-0.0709716
0.0710684
-0.020879
0.000414652
-0.0709638
0.0707266
-0.0237332
0.00107616
-0.0703188
0.0698071
-0.0269386
0.00171508
-0.0691531
0.0684277
-0.0304517
0.002307
-0.067584
0.0666934
-0.0341504
0.00282501
-0.065697
0.0646636
-0.0379821
0.00329282
-0.0635202
0.0623298
-0.0419657
0.00375618
-0.0610053
0.0596161
-0.0461527
0.00424383
-0.0580677
0.0564211
-0.050569
0.00475536
-0.0545656
0.0525873
-0.0552182
0.00528525
-0.050379
0.0479877
-0.060035
0.00580347
-0.0452651
0.0423398
-0.0649537
0.00633219
-0.0391164
0.0355511
-0.0697418
0.00678814
-0.0313747
0.0268987
-0.0742383
0.00732175
-0.0221105
0.0164033
-0.077659
0.00767296
-0.00864326
0.0022779
-0.079505
0.00670907
0.00180686
-0.00438042
-0.0699738
0.00789901
0.03219
-0.0180436
0.0126421
-0.0267886
-0.0830266
0.0207044
-0.0142106
0.112711
-0.0361779
-0.0789043
0.00374468
0.00445486
0.102171
-0.0314659
-0.0629237
-0.0173663
0.0248224
0.0816679
-0.0262002
-0.0470537
-0.0334101
0.0412156
0.0608609
-0.0216126
-0.032332
-0.0483563
0.0551508
0.0428523
-0.0173148
-0.0201313
-0.0612963
0.0668541
0.0281041
-0.0135306
-0.0105985
-0.071755
0.0759605
0.016668
-0.010275
-0.00340307
-0.0795017
0.0823035
0.00820902
-0.00760769
0.00191097
-0.0845263
0.0861228
0.00196243
-0.00546994
0.00617798
-0.0873407
0.0880844
-0.00305983
-0.00386182
0.00995069
-0.0884778
0.0885139
-0.00762058
-0.00236622
0.0136876
-0.0882786
0.0877902
-0.0122319
-0.000967375
0.0176243
-0.0871229
0.0863038
-0.0169842
0.000178942
0.0217964
-0.0853551
0.0843199
-0.0217861
0.00102495
0.0261162
-0.0832221
0.0820898
-0.0265113
0.00152743
0.0304943
-0.0809186
0.0797221
-0.0311484
0.0018506
0.0348826
-0.0784854
0.0772154
-0.0357512
0.00213857
0.0393127
-0.0758838
0.0745029
-0.0403988
0.00246704
0.0438516
-0.0730336
0.0714842
-0.045152
0.00284987
0.0485565
-0.0698048
0.0680308
-0.0500395
0.00325693
0.053436
-0.0660999
0.0640284
-0.0550484
0.00368383
0.0584758
-0.0617333
0.0593028
-0.0601419
0.00409657
0.0635872
-0.0566384
0.0537478
-0.0652262
0.00452972
0.0686872
-0.0504842
0.047063
-0.0701867
0.00492076
0.0735123
-0.0433476
0.0392536
-0.0747768
0.00535859
0.0778776
-0.0344617
0.0296207
-0.0787322
0.00569558
0.0810134
-0.0246039
0.0188534
-0.0814658
0.00620301
0.0823773
-0.0111818
0.00672785
-0.0826848
0.00476147
0.0761095
0.00149887
-0.0794665
0.00703974
-0.00518158
-0.0413454
-0.0022769
0.0593949
-0.0157725
-0.133299
0.00257822
0.00543093
0.146924
-0.0216342
-0.119053
-0.0194136
0.0254741
0.130399
-0.0174062
-0.0935751
-0.0367717
0.0435604
0.100522
-0.0137355
-0.0691385
-0.050961
0.0573631
0.0738357
-0.0110993
-0.048679
-0.0637746
0.0692699
0.0519903
-0.00880657
-0.0321051
-0.0745403
0.0787831
0.034618
-0.00675584
-0.0194159
-0.082528
0.085226
0.0215981
-0.00488018
-0.0101424
-0.0873434
0.0885126
0.0122037
-0.00323052
-0.00330352
-0.0891957
0.0891597
0.00516411
-0.00182459
0.00217313
-0.0889114
0.0883093
-0.000854364
-0.000716671
0.00725197
-0.0875574
0.0865384
-0.00617634
-5.66509e-05
0.0122091
-0.0855221
0.0843395
-0.0112957
0.000269213
0.0170653
-0.0832244
0.0820065
-0.0161925
0.000345112
0.0217756
-0.080869
0.0796451
-0.0209249
0.000373194
0.0263487
-0.0784958
0.0772531
-0.0255754
0.000469387
0.0308738
-0.0760738
0.0747874
-0.0302157
0.00062825
0.0354351
-0.0735415
0.0721749
-0.0348893
0.000820778
0.0400887
-0.0708192
0.0693359
-0.0396164
0.00101106
0.0448544
-0.0678393
0.066191
-0.0444003
0.00119418
0.0497278
-0.0644868
0.0626333
-0.0492317
0.00135736
0.0546754
-0.0607065
0.0585848
-0.0540817
0.00152806
0.0596486
-0.056316
0.0538898
-0.0589042
0.0016818
0.0645461
-0.0513338
0.0485176
-0.0636015
0.00187158
0.0692484
-0.0454081
0.0421843
-0.0680576
0.00203293
0.0735158
-0.03883
0.0350956
-0.0720489
0.00226744
0.0771024
-0.0307364
0.0265285
-0.0753672
0.00247265
0.0795305
-0.0224601
0.0177024
-0.0776129
0.00284011
0.0808194
0.00786837
-0.0791312
0.00139799
-0.0109545
0.079284
0.00397637
-0.0783187
0.00264388
-0.00758548
-0.0715919
0.002802
0.0796539
-0.0108641
-0.155171
-0.00832054
0.0185425
0.15928
-0.0143312
-0.137769
-0.0352012
0.0418456
0.141508
-0.0103831
-0.104332
-0.0510426
0.0575985
0.105909
-0.00813298
-0.0760397
-0.0646867
0.0704211
0.0766915
-0.00638616
-0.0531514
-0.0760818
0.0805726
0.0533609
-0.00470016
-0.0352528
-0.0846208
0.0873812
0.035573
-0.00308067
-0.0220513
-0.0894343
0.0903279
0.0227501
-0.00159233
-0.0125352
-0.0906114
0.0900721
0.0135483
-0.000473733
-0.00528861
-0.0892104
0.0878917
0.006497
0.000110275
0.000629297
-0.0865193
0.0851421
0.000513689
0.000234169
0.00615518
-0.0837915
0.0823886
-0.00477969
2.7432e-05
0.0111989
-0.0811074
0.0797957
-0.00971217
-0.000174998
0.0159787
-0.0786059
0.0773696
-0.0144638
-0.000278695
0.0206154
-0.0762197
0.0750026
-0.0191151
-0.000283156
0.025195
-0.0738439
0.0726022
-0.0237167
-0.000236558
0.0297712
-0.0713971
0.0701018
-0.0282973
-0.000178559
0.0343721
-0.0688232
0.067441
-0.0328748
-0.000115173
0.0390109
-0.0660462
0.0645489
-0.0374598
-5.38537e-05
0.0436843
-0.06302
0.0613653
-0.0420491
1.94331e-05
0.0483788
-0.0596331
0.057787
-0.0466345
0.000101819
0.0530619
-0.0558656
0.0537749
-0.0511715
0.000200284
0.0576857
-0.0515274
0.0491828
-0.0556093
0.000268186
0.0621472
-0.0467368
0.0440592
-0.0598527
0.000383095
0.0663424
-0.0410854
0.0381066
-0.0638082
0.000444606
0.070055
-0.0350924
0.0317068
-0.0672777
0.000608275
0.0731305
-0.0276601
0.0239938
-0.0701408
0.000676603
0.0752366
0.0164899
-0.0721656
0.001124
-0.0206848
0.0768871
0.00783811
-0.0739322
-0.000786382
-0.0100066
0.0763897
0.0046618
-0.0738839
0.00132645
-0.00849407
-0.0848344
0.0045526
0.0879186
-0.00763682
-0.160346
-0.0144942
0.0268714
0.15873
-0.0107621
-0.142401
-0.0451675
0.0542846
0.140461
-0.00717762
-0.105786
-0.0630575
0.069637
0.104086
-0.00487896
-0.0759906
-0.0764008
0.0814459
0.0744568
-0.00351125
-0.0525036
-0.085909
0.0888488
0.0515284
-0.00196458
-0.0349847
-0.0909661
0.0916646
0.0348746
-0.00058835
-0.0225036
-0.0916211
0.0906203
0.0231227
0.000381608
-0.0134704
-0.0892906
0.0875094
0.014577
0.000674601
-0.00647083
-0.0857535
0.0838562
0.00790263
0.000465549
-0.000666287
-0.0821364
0.0804631
0.00224972
8.98081e-05
0.00454232
-0.0791155
0.077705
-0.0029134
-0.000218416
0.00940009
-0.0764579
0.0751851
-0.00773285
-0.000394488
0.0140367
-0.0740369
0.0728332
-0.0124087
-0.000424245
0.0185638
-0.0717123
0.070514
-0.0169961
-0.000369421
0.0230388
-0.0693702
0.0681359
-0.0215257
-0.000278808
0.0274961
-0.0669327
0.0656372
-0.0260141
-0.000186553
0.0319531
-0.0643546
0.0629689
-0.0304678
-9.96711e-05
0.0364144
-0.0615665
0.0600707
-0.0348877
-3.08507e-05
0.0408653
-0.0585446
0.0568938
-0.0392653
5.07695e-05
0.0452913
-0.0551715
0.0533545
-0.0435793
0.000105002
0.0496436
-0.0514782
0.0494427
-0.0477878
0.000179772
0.0538724
-0.0472552
0.0450126
-0.0518437
0.000213915
0.0578821
-0.0427089
0.0401811
-0.0556615
0.00030729
0.061588
-0.0373576
0.0346119
-0.0591663
0.00032393
0.0648184
-0.0319224
0.0288333
-0.0622067
0.000477354
0.0674952
0.0217873
-0.0647344
0.000486515
-0.0250346
0.0694213
0.0151949
-0.0665745
0.0010006
-0.0190423
0.0712254
0.00727017
-0.068416
-0.00130763
-0.00877197
0.0712693
0.00473159
-0.0685534
0.00115739
-0.00860487
-0.0897557
0.00475944
0.0907854
-0.00578917
-0.154936
-0.0180195
0.0323107
0.149168
-0.00852316
-0.136359
-0.0510268
0.062422
0.130358
-0.00539422
-0.101002
-0.0717841
0.0784381
0.0970058
-0.00265773
-0.0720569
-0.08436
0.0880652
0.0696642
-0.0013125
-0.0500281
-0.0906386
0.091487
0.0492217
-4.20394e-05
-0.0343059
-0.0914439
0.0902251
0.0346752
0.000849473
-0.0231618
-0.0886389
0.0865376
0.0242562
0.00100694
-0.0149398
-0.0845138
0.0823699
0.0164028
0.000680964
-0.00838329
-0.0805049
0.0786355
0.0100066
0.000246039
-0.00273707
-0.0770381
0.0754346
0.00442832
-8.77135e-05
0.0023602
-0.0741353
0.0728535
-0.000784607
-0.000293738
0.0072105
-0.0717102
0.0705071
-0.00559674
-0.000410666
0.0118645
-0.069425
0.0682655
-0.0102793
-0.000425648
0.0163919
-0.067192
0.0660251
-0.0148406
-0.000384371
0.0208357
-0.0649173
0.0637068
-0.0193013
-0.000323796
0.02522
-0.0625317
0.0612569
-0.0236761
-0.000269224
0.0295546
-0.0600012
0.0586349
-0.027972
-0.000216258
0.0338412
-0.0572579
0.055785
-0.0321916
-0.000176795
0.0380679
-0.054293
0.0526761
-0.0363234
-0.000127551
0.0422149
-0.0509929
0.0492313
-0.0403503
-0.000102982
0.0462393
-0.0474269
0.0454696
-0.044232
-5.00478e-05
0.0500978
-0.0433672
0.0412446
-0.0479325
-4.26607e-05
0.0537059
-0.0390999
0.0367256
-0.051373
4.13974e-05
0.0570068
-0.0340493
0.0315326
-0.0545023
1.21882e-05
0.0598516
0.0263062
-0.0571997
0.000189829
-0.0291479
0.0622344
0.0198065
-0.0594629
0.000110138
-0.0226881
0.0639755
0.0139153
-0.0611402
0.000797776
-0.0175484
0.0658018
0.00661837
-0.0629613
-0.0020166
-0.00744218
0.0658687
0.00472156
-0.0631133
0.00116267
-0.00863968
-0.0914778
0.0047951
0.0918282
-0.00514548
-0.142031
-0.0202292
0.0355759
0.133974
-0.00729
-0.123329
-0.0532404
0.065242
0.11584
-0.00451262
-0.092496
-0.0746068
0.0806618
0.0881734
-0.00173238
-0.0671607
-0.0851407
0.0871685
0.0653761
-0.000243238
-0.048322
-0.087989
0.0872489
0.0482512
0.000810959
-0.0347631
-0.0859846
0.0839976
0.0356667
0.00108344
-0.0248132
-0.0820597
0.0799051
0.0261569
0.000810838
-0.0170938
-0.0780464
0.0761501
0.0185865
0.000403624
-0.0106596
-0.0746022
0.0730071
0.0121865
6.8183e-05
-0.00497403
-0.0716718
0.0702734
0.0065197
-0.000147291
0.00010188
-0.0690752
0.0679302
0.00130113
-0.000258073
0.00509191
-0.0669155
0.0658086
-0.00360413
-0.000380952
0.00975129
-0.0648177
0.0637229
-0.00825131
-0.00040517
0.0142303
-0.0627198
0.0616052
-0.0127472
-0.000368519
0.0185807
-0.0605565
0.0593901
-0.0171078
-0.000306373
0.0228317
-0.058265
0.0570306
-0.0213503
-0.000246934
0.0269962
-0.0558228
0.0544948
-0.0254815
-0.000186721
0.0310774
-0.0531629
0.0517336
-0.029503
-0.00014518
0.0350612
-0.0502977
0.0487321
-0.0334019
-9.37264e-05
0.0389301
-0.0471085
0.0454183
-0.0371645
-7.53747e-05
0.0426432
-0.0437077
0.0418392
-0.0407528
-2.19521e-05
0.0461668
-0.0398315
0.0378359
-0.0441408
-3.04548e-05
0.0494246
-0.03586
0.0336334
-0.0472596
6.15667e-05
0.0523819
0.0287902
-0.0500751
1.6385e-06
-0.0310986
0.0549171
0.0240553
-0.0524888
0.000205692
-0.0266892
0.0570629
0.0180103
-0.0545299
2.88622e-05
-0.0205722
0.0586498
0.0126799
-0.0560524
0.000891105
-0.0161683
0.0604288
0.00595126
-0.0578025
-0.00245555
-0.00612206
0.0604998
0.004645
-0.0579025
0.00134768
-0.00858994
-0.0917936
0.00568113
0.0909054
-0.00479289
-0.125821
-0.0215043
0.0362004
0.117867
-0.00674192
-0.108738
-0.0512117
0.061869
0.102202
-0.00412125
-0.0842442
-0.0700528
0.0748881
0.0808907
-0.00148188
-0.0637455
-0.0780217
0.0790228
0.062631
0.000113343
-0.0480114
-0.0791934
0.0781975
0.0481913
0.000816
-0.0361007
-0.0770175
0.0753649
0.0369294
0.000823877
-0.0268306
-0.0739484
0.0723299
0.0279292
0.000519955
-0.0192839
-0.0710184
0.069583
0.0204825
0.000236759
-0.0128228
-0.068453
0.0671939
0.0140666
1.52879e-05
-0.00706965
-0.0661616
0.0650009
0.00835696
-0.000126646
-0.00181748
-0.0640243
0.0629262
0.00313803
-0.00022238
0.0030752
-0.0621019
0.0611073
-0.00177713
-0.000303521
0.00772084
-0.0602298
0.0592165
-0.00636535
-0.000342214
0.0121469
-0.0582988
0.0572532
-0.0107766
-0.000324756
0.0164097
-0.05628
0.0551749
-0.0150221
-0.000282518
0.0205382
-0.0541171
0.0529412
-0.0191195
-0.000242795
0.0245448
-0.0517997
0.050528
-0.0230763
-0.000196827
0.0284336
-0.049259
0.0478915
-0.0268961
-0.000169993
0.0321914
-0.0465301
0.0450308
-0.0305671
-0.000125006
0.0358059
-0.0434816
0.0418762
-0.0340799
-0.000120733
0.0392394
-0.0402731
0.0384997
-0.0373996
-6.64188e-05
0.0424693
-0.0365957
0.0347289
-0.0405091
-9.33748e-05
0.0454293
0.0308428
-0.0433445
-3.44718e-06
-0.0329242
0.0480985
0.0263225
-0.0458996
-8.47028e-05
-0.0284367
0.0503746
0.022033
-0.0480721
0.000154219
-0.0244898
0.052317
0.0163861
-0.0499328
-0.000121859
-0.0186485
0.0537518
0.0115312
-0.0513082
0.000951734
-0.0149265
0.0554479
0.0053433
-0.0529671
-0.00295875
-0.0048654
0.0554503
0.00457269
-0.053007
0.00155045
-0.00856644
-0.0888601
0.0071716
0.0854338
-0.00374532
-0.110513
-0.0211982
0.0334352
0.103454
-0.0051787
-0.0963838
-0.0446825
0.0528357
0.090827
-0.00259637
-0.0777109
-0.059468
0.0634532
0.0745374
-0.000811722
-0.0612766
-0.066178
0.0672567
0.0599064
0.000291471
-0.0478844
-0.0678981
0.0675512
0.0475814
0.000649844
-0.0371299
-0.0671347
0.0662513
0.0374173
0.000596027
-0.0283357
-0.0656147
0.0646513
0.0289364
0.000362676
-0.0209482
-0.0639305
0.0629684
0.0217271
0.000183189
-0.0145261
-0.0622645
0.0613426
0.0154229
2.51568e-05
-0.00878612
-0.0606167
0.0597019
0.00978454
-8.366e-05
-0.00353878
-0.0589625
0.0580349
0.00463681
-0.000170493
0.00130058
-0.0572798
0.0564555
-0.000247914
-0.000228337
0.00588339
-0.0557034
0.0547902
-0.00468243
-0.000287727
0.0102179
-0.0539719
0.0530101
-0.00897164
-0.000284463
0.0143572
-0.0521266
0.0510967
-0.0130753
-0.000252019
0.0183351
-0.0501197
0.0490158
-0.0170116
-0.000219651
0.0221657
-0.047954
0.0467513
-0.020788
-0.000174969
0.0258552
-0.0455575
0.0442636
-0.024409
-0.000152347
0.0293914
-0.0429885
0.0415655
-0.0278632
-0.000105129
0.0327662
-0.0400997
0.0385878
-0.0311452
-0.000109235
0.0359452
-0.0371007
0.0354276
-0.0342222
-4.99824e-05
0.0389145
0.0318911
-0.037087
-9.34585e-05
-0.0336251
0.0416123
0.028307
-0.0396799
1.80174e-05
-0.0302574
0.0440415
0.0240905
-0.0420103
-0.000105077
-0.0260167
0.0460963
0.0202007
-0.0439781
0.000190344
-0.0225093
0.0478729
0.0149151
-0.0456851
-0.000214467
-0.0168884
0.0491723
0.0104638
-0.0469279
0.00109313
-0.0138014
0.0507723
0.00479036
-0.0484801
-0.00339787
-0.00368473
0.0507254
0.00449385
-0.048465
0.00179144
-0.00854576
-0.080805
0.00732078
0.0754014
-0.0019172
-0.0966611
-0.0187204
0.0280123
0.0897659
-0.00239665
-0.0853975
-0.0353192
0.0411331
0.0797345
-0.000150847
-0.071102
-0.047017
0.0510112
0.0674459
-0.000338159
-0.0580842
-0.0539808
0.055557
0.0560739
0.000434044
-0.046735
-0.0569609
0.057401
0.0457494
0.00054547
-0.0371247
-0.0577589
0.0575927
0.0367982
0.000492702
-0.0289466
-0.0576598
0.0572747
0.0290338
0.000297784
-0.0218974
-0.0570578
0.0565193
0.0222576
0.000178337
-0.0156754
-0.0562052
0.0556003
0.016229
5.12872e-05
-0.0100775
-0.0551605
0.0544836
0.0107886
-3.41464e-05
-0.00494638
-0.0539723
0.0532343
0.00579805
-0.000113608
-0.000232242
-0.0526273
0.0518843
0.00113925
-0.000164059
0.00424679
-0.051277
0.0504793
-0.00322783
-0.000221313
0.00845824
-0.0497684
0.0488989
-0.00735482
-0.000233912
0.0124572
-0.0481125
0.0471667
-0.0112949
-0.000216514
0.0162779
-0.0462786
0.0452563
-0.0150568
-0.00019883
0.0199332
-0.0442832
0.0431585
-0.0186466
-0.00016186
0.0234304
-0.042048
0.040837
-0.0220696
-0.000149801
0.026758
-0.0396565
0.0383167
-0.0253147
-0.000103406
0.0299125
-0.0369395
0.0355275
-0.0283802
-0.000120252
0.0328615
0.0325882
-0.0312353
-5.36519e-05
-0.0341608
0.035601
0.0292852
-0.0338811
-0.000118261
-0.0308869
0.0380726
0.0259912
-0.0362595
1.51786e-05
-0.0278195
0.0402937
0.0220591
-0.0383953
-0.000153841
-0.0238037
0.042159
0.0185331
-0.0401864
0.000210074
-0.0207158
0.0437932
0.0135833
-0.0417618
-0.000342293
-0.0152724
0.0449673
0.0094817
-0.0428891
0.00122939
-0.0127893
0.0464518
0.00430172
-0.0443128
-0.00385056
-0.00259019
0.0463603
0.00442164
-0.0442674
0.00202938
-0.00854394
-0.0696907
0.00585252
0.0640619
-0.00022374
-0.0830132
-0.0151779
0.0220685
0.0762952
-0.000172595
-0.0741778
-0.0259936
0.030567
0.0686052
0.000999236
-0.0637196
-0.0365263
0.0407507
0.0599349
-0.000439741
-0.0537804
-0.043756
0.0455717
0.0513482
0.000616438
-0.0443924
-0.0475118
0.0485325
0.0429068
0.000464801
-0.0360542
-0.0494217
0.0497741
0.0352533
0.000448547
-0.0286764
-0.0503642
0.0504319
0.0283458
0.000262833
-0.0221425
-0.050603
0.0504118
0.0221467
0.000186985
-0.0162675
-0.0504271
0.0501
0.0165208
7.382e-05
-0.0109259
-0.049908
0.0494469
0.0113798
7.3235e-06
-0.0060011
-0.0491435
0.0485803
0.00662916
-6.48632e-05
-0.00143308
-0.0481324
0.047483
0.00219624
-0.000113762
0.00284846
-0.0470237
0.0463317
-0.001993
-0.000163486
0.00690113
-0.045728
0.0449527
-0.00593716
-0.000188664
0.0107317
-0.0442657
0.0434082
-0.00969221
-0.000181981
0.0143769
-0.0426128
0.0416773
-0.0132665
-0.000174844
0.0178473
-0.0407976
0.0397557
-0.0166643
-0.000141138
0.0211506
-0.0387328
0.0376098
-0.0198908
-0.000136824
0.0242755
-0.0365284
0.035275
-0.0229346
-8.75067e-05
0.0272223
0.0326793
-0.0257971
-0.000115869
-0.0339886
0.02996
0.0299609
-0.0284483
-3.79304e-05
-0.0314346
0.032493
0.0268859
-0.0308971
-0.000125415
-0.0283564
0.0347631
0.023867
-0.0330859
4.02895e-05
-0.0255845
0.0368048
0.0202033
-0.0350525
-0.000184823
-0.0217708
0.0385058
0.0170089
-0.036689
0.000259247
-0.019085
0.0400192
0.0123721
-0.0381525
-0.000454803
-0.0137841
0.04109
0.00856894
-0.0391862
0.00139701
-0.0118697
0.0424291
0.00387354
-0.0404406
-0.00428082
-0.00158122
0.0423298
0.0043494
-0.0404022
0.00226745
-0.00854442
-0.058759
0.00423674
0.0538922
0.000630033
-0.0700915
-0.0121396
0.0172494
0.0642453
0.000736359
-0.0634755
-0.0185496
0.022789
0.0585782
0.000657893
-0.0563567
-0.0290429
0.0331445
0.0528142
-0.000559034
-0.0488647
-0.0357209
0.0374726
0.046311
0.000801924
-0.0412576
-0.0397125
0.0410846
0.0395218
0.000363626
-0.0342064
-0.0422441
0.0429144
0.0331083
0.000427739
-0.0277156
-0.0438624
0.0442546
0.0270894
0.000234005
-0.0218035
-0.0446942
0.0447661
0.021535
0.00019663
-0.0163783
-0.0450426
0.0449426
0.0163869
9.13681e-05
-0.0113796
-0.0449511
0.0446756
0.0116139
4.11419e-05
-0.00673092
-0.0445535
0.0441482
0.00715899
-2.27999e-05
-0.00238466
-0.0438502
0.0433218
0.00297925
-6.61829e-05
0.0016827
-0.0429481
0.0423666
-0.000991923
-0.000109287
0.00554103
-0.0418724
0.0411926
-0.00471729
-0.000143954
0.00918602
-0.040604
0.0398355
-0.0082701
-0.00014746
0.0126461
-0.0391321
0.038285
-0.0116471
-0.00015195
0.0159288
-0.0374995
0.0365423
-0.0148491
-0.000122482
0.0190414
-0.0356075
0.0345751
-0.0178808
-0.000128296
0.021972
0.0324284
-0.0207298
-7.622e-05
-0.0335944
0.0247242
0.0300267
-0.0234004
-0.000118636
-0.0312319
0.0272676
0.0275249
-0.0258627
-2.63492e-05
-0.0289035
0.0296143
0.0246702
-0.0281317
-0.000141422
-0.0260114
0.0317054
0.021912
-0.0301495
5.98029e-05
-0.0235276
0.0335894
0.0185039
-0.0319668
-0.000229766
-0.0198968
0.0351459
0.0156099
-0.0334659
0.000309237
-0.0175991
0.0365562
0.0112637
-0.0348324
-0.000580464
-0.012407
0.0375456
0.0076937
-0.0357941
0.00158556
-0.0110308
0.0386888
0.00352916
-0.0368337
-0.00472709
-0.000657137
0.0386206
0.00428198
-0.0368438
0.00248848
-0.00854719
-0.0495309
0.00302997
0.0456127
0.000888241
-0.0591057
-0.00999392
0.0137649
0.0543659
0.000968797
-0.0542991
-0.0131538
0.0175673
0.0502568
-0.000371198
-0.0495975
-0.0239344
0.0275437
0.0464251
-0.000436945
-0.0438669
-0.0294245
0.0309946
0.0413973
0.000899493
-0.0377774
-0.0334056
0.0349454
0.0359787
0.00025893
-0.0318995
-0.0361661
0.0369992
0.0306513
0.000415107
-0.0262844
-0.0381795
0.0387853
0.0254748
0.000203979
-0.0210281
-0.0393842
0.0396421
0.0205691
0.000201151
-0.0161028
-0.0401147
0.0401895
0.0159262
0.000101775
-0.0114962
-0.0403482
0.0402236
0.0115552
6.56022e-05
-0.0071684
-0.0402511
0.0399795
0.0074305
9.43102e-06
-0.00309206
-0.0398046
0.0393895
0.00353536
-2.81621e-05
0.000732225
-0.0391036
0.0386355
-0.00020112
-6.29454e-05
0.00438067
-0.0382338
0.0376422
-0.00368361
-0.000105473
0.00782225
-0.0371452
0.0364627
-0.00702371
-0.000116041
0.0110864
-0.0358473
0.0350875
-0.0101965
-0.000129989
0.0141765
-0.0343939
0.0335203
-0.0132004
-0.00010244
0.0170991
0.03173
-0.0160395
-0.000118035
-0.0326715
0.0198409
0.0297686
-0.0187001
-6.08929e-05
-0.0308486
0.0224084
0.0275573
-0.0211888
-0.000117607
-0.0286592
0.0247711
0.0252649
-0.023475
-8.38122e-06
-0.0265526
0.0269474
0.022622
-0.0255798
-0.000153905
-0.0238357
0.0288763
0.0201109
-0.027442
8.79378e-05
-0.0216332
0.0306194
0.0169461
-0.0291251
-0.000273215
-0.0181672
0.032047
0.0143199
-0.0304995
0.000374635
-0.0162421
0.0333655
0.0102406
-0.0317759
-0.000703193
-0.011127
0.0342856
0.00681989
-0.0326584
0.00181148
-0.0102586
0.0352195
0.00328661
-0.0335231
-0.00515895
0.000175964
0.0352086
0.00421716
-0.0335761
0.00269092
-0.00854066
-0.0421492
0.00216246
0.0390197
0.000967029
-0.0502772
-0.00849385
0.0112755
0.0464836
0.00101199
-0.0467771
-0.0093258
0.0141018
0.0434697
-0.00146865
-0.043609
-0.0203607
0.0232998
0.0408204
-0.000150496
-0.0391243
-0.024432
0.0258289
0.03684
0.000887455
-0.034267
-0.0283428
0.0299137
0.0325156
0.000180507
-0.0293879
-0.031051
0.0319465
0.0280924
0.000400139
-0.0245788
-0.0332706
0.0340016
0.0236718
0.00017604
-0.0199592
-0.0346719
0.0350526
0.0193781
0.000200426
-0.0155429
-0.0356655
0.0358671
0.0152343
0.000106924
-0.0113489
-0.0361293
0.0361219
0.0112732
8.30485e-05
-0.00736479
-0.0362683
0.0361075
0.00749242
3.31167e-05
-0.00358138
-0.0360325
0.0357205
0.00389083
2.55828e-06
-3.2146e-05
-0.0355232
0.0351339
0.000445922
-2.44181e-05
0.00340383
-0.0348135
0.0343088
-0.00282685
-7.22713e-05
0.00663175
-0.033898
0.0332973
-0.0059438
-8.72505e-05
0.00969447
-0.0327641
0.0320881
-0.00890852
-0.000109945
0.0125907
0.030689
-0.0117141
-8.345e-05
-0.0314821
0.0153261
0.0290692
-0.014364
-0.000109517
-0.0299218
0.0178857
0.0272868
-0.0168423
-4.62756e-05
-0.0282839
0.0202786
0.0252595
-0.019159
-0.000119496
-0.0262596
0.0224724
0.0231673
-0.0212801
1.02196e-05
-0.0243698
0.0244933
0.0207298
-0.0232332
-0.000173219
-0.0218167
0.026274
0.0184509
-0.0249525
0.00011683
-0.0198893
0.0278901
0.0155161
-0.026513
-0.000324466
-0.0165688
0.0291984
0.0131281
-0.0277717
0.000445065
-0.0149998
0.030429
0.00930429
-0.0289624
-0.000835743
-0.00993513
0.0312597
0.00600432
-0.0297528
0.00204171
-0.00955285
0.0320576
0.00308784
-0.0305033
-0.00555767
0.000915534
0.0320788
0.00415344
-0.0305774
0.00287635
-0.00853123
-0.0362488
0.00151668
0.0337098
0.00102233
-0.0432205
-0.00740213
0.00943847
0.0401464
0.00103773
-0.0406462
-0.00657485
0.0117505
0.0379236
-0.00245309
-0.0383861
-0.0177397
0.0199768
0.0359585
0.000190479
-0.0347887
-0.0204142
0.0216962
0.0327246
0.000781931
-0.0309037
-0.0242748
0.0257818
0.0292564
0.000140282
-0.026845
-0.0267477
0.0276485
0.0255673
0.000376794
-0.0227457
-0.0290567
0.0298454
0.0218035
0.00015353
-0.0187133
-0.0305219
0.0309773
0.0180628
0.000195069
-0.0147879
-0.0316857
0.0319734
0.0143914
0.000108784
-0.0110031
-0.0322988
0.0323795
0.0108289
9.33877e-05
-0.00736797
-0.0326166
0.0325428
0.00739092
5.08662e-05
-0.0038875
-0.0325442
0.032321
0.00408744
2.3296e-05
-0.000575081
-0.03221
0.0318713
0.000914779
-9.27423e-07
0.00259277
-0.0316302
0.0312051
-0.00212198
-4.57597e-05
0.00560382
-0.0308714
0.0303453
-0.00501511
-6.26552e-05
0.00846229
0.0292886
-0.00777226
-9.27671e-05
-0.0298859
0.0111648
0.0280465
-0.0103821
-6.51591e-05
-0.0287639
0.0137163
0.0265883
-0.0128476
-0.000101953
-0.027355
0.0160997
0.0249755
-0.0151507
-3.01606e-05
-0.0258943
0.0183267
0.0231256
-0.0173038
-0.000123106
-0.0240254
0.0203622
0.0212246
-0.0192704
3.07518e-05
-0.0223472
0.0222388
0.0189847
-0.0210822
-0.000194568
-0.0199467
0.0238827
0.0169203
-0.0226688
0.000150751
-0.018285
0.0253812
0.0142004
-0.0241153
-0.00037714
-0.0150891
0.0265793
0.0120243
-0.0252672
0.000522081
-0.0138585
0.0277278
0.00844994
-0.0263786
-0.000975178
-0.00882394
0.0284692
0.00525851
-0.0270823
0.00226234
-0.0089078
0.0291669
0.00290518
-0.0277416
-0.00592027
0.00158977
0.0292076
0.00408854
-0.0278283
0.00304784
-0.00851571
-0.0314513
0.00102395
0.0293504
0.00107693
-0.0374969
-0.0065727
0.00802242
0.0349577
0.0010895
-0.0355979
-0.0045722
0.0101002
0.0333067
-0.00323683
-0.0338542
-0.0157145
0.0172936
0.031734
0.000541074
-0.0309001
-0.0171254
0.018365
0.0290531
0.000607406
-0.0277738
-0.0209841
0.0223662
0.0262539
0.000137823
-0.0243777
-0.0231153
0.023997
0.0231564
0.000339606
-0.0208888
-0.0254509
0.0262469
0.0199522
0.000140586
-0.0173798
-0.0268821
0.0273783
0.0166993
0.000184344
-0.0139106
-0.0281477
0.0284874
0.0134601
0.000110774
-0.0105174
-0.0288426
0.0289876
0.010274
9.8272e-05
-0.00722381
-0.029292
0.0292848
0.00716775
6.32571e-05
-0.00404276
-0.0293416
0.0291892
0.00415737
3.78238e-05
-0.000990773
-0.0291454
0.0288672
0.00125077
1.81586e-05
0.00193145
-0.0286917
0.0283339
-0.0015488
-2.48431e-05
0.0047241
0.0276067
-0.0042228
-4.17057e-05
-0.0280663
0.00737936
0.0266879
-0.00677668
-7.8354e-05
-0.0272122
0.0098913
0.0255903
-0.00919576
-4.84093e-05
-0.0262374
0.012264
0.0242835
-0.0114829
-9.67709e-05
-0.0249678
0.0144779
0.0228306
-0.0136182
-1.44801e-05
-0.0236759
0.0165473
0.0211502
-0.0156156
-0.000129637
-0.0219522
0.0184338
0.0194294
-0.0174358
4.98678e-05
-0.0204773
0.0201764
0.0173762
-0.0191165
-0.000219139
-0.0182169
0.021691
0.0155047
-0.0205767
0.000187935
-0.016807
0.023081
0.0129882
-0.0219182
-0.000435784
-0.0137152
0.0241767
0.0110018
-0.0229709
0.00060175
-0.0128093
0.0252495
0.00767039
-0.0240091
-0.00112307
-0.00778768
0.0259079
0.00457311
-0.0246327
0.00246993
-0.0083182
0.0265224
0.00273948
-0.0252143
-0.0062469
0.00219926
0.0265769
0.00402421
-0.0253104
0.003205
-0.00849573
-0.0274748
0.000636037
0.0257077
0.00113111
-0.032764
-0.00591969
0.00688515
0.0306275
0.00117105
-0.0313389
-0.00310039
0.00888908
0.0293631
-0.00381283
-0.0299079
-0.0140805
0.0150824
0.0280513
0.000854671
-0.0274431
-0.0143979
0.0156598
0.0257999
0.00038124
-0.0249099
-0.0182991
0.0195193
0.0235238
0.000165942
-0.0220467
-0.0200338
0.0208907
0.0209023
0.000287584
-0.019075
-0.0223663
0.0231346
0.0181712
0.00013543
-0.0160233
-0.023697
0.0242114
0.0153404
0.000168503
-0.0129676
-0.0250171
0.0253825
0.0124908
0.000111333
-0.00993895
-0.0257392
0.0259294
0.00965096
9.77274e-05
-0.00697123
-0.0262817
0.0263233
0.00685702
7.26202e-05
-0.00407935
-0.0264177
0.0263238
0.00412635
4.69353e-05
-0.00128302
-0.0263365
0.02611
0.00147594
3.35417e-05
0.00140283
0.025685
-0.00109195
-8.43526e-06
-0.0259874
0.00397611
0.0250772
-0.00355257
-2.40323e-05
-0.0254768
0.00643217
0.0242827
-0.00590844
-6.70295e-05
-0.0247394
0.00875868
0.0233171
-0.00814291
-3.36641e-05
-0.0238992
0.0109588
0.0221512
-0.010259
-9.40341e-05
-0.0227569
0.0130104
0.0208468
-0.012234
3.5502e-07
-0.0216236
0.0149299
0.0193263
-0.0140832
-0.000139145
-0.0200338
0.0166751
0.0177707
-0.0157647
7.03992e-05
-0.0187515
0.0182888
0.015891
-0.0173192
-0.000246022
-0.0166145
0.0196845
0.0141939
-0.0186635
0.000228246
-0.0154431
0.0209738
0.0118719
-0.0199075
-0.000499615
-0.0124386
0.0219753
0.0100537
-0.0208692
0.000684991
-0.0118447
0.0229777
0.00695909
-0.021839
-0.00127694
-0.00682084
0.0235599
0.00394352
-0.0223893
0.00266451
-0.00777857
0.024102
0.00258839
-0.0229022
-0.00653606
0.00274783
0.024169
0.00395992
-0.0230074
0.00334873
-0.00847031
-0.0241299
0.000322667
0.0226262
0.001181
-0.0287799
-0.00539637
0.00595479
0.0269525
0.00126905
-0.0276635
-0.00202005
0.0079479
0.0259307
-0.00419513
-0.0264633
-0.0127241
0.013236
0.0248346
0.00111693
-0.0243834
-0.0121145
0.0134468
0.0229254
0.000125647
-0.0223159
-0.0160873
0.0171246
0.0210611
0.000217523
-0.0198821
-0.0174041
0.0182411
0.0188231
0.000222056
-0.0173467
-0.0197223
0.0204389
0.0164902
0.00013987
-0.0146894
-0.0209093
0.0214307
0.0140239
0.00014416
-0.012003
-0.0222552
0.0226264
0.0115187
0.000113129
-0.0093073
-0.0229636
0.0231851
0.00899329
9.25057e-05
-0.006643
-0.0235696
0.0236451
0.0064883
7.91679e-05
-0.00402575
-0.0237614
0.0237152
0.00401998
5.19545e-05
-0.00148091
0.0235998
0.00161057
4.44022e-05
-0.0237739
0.000978158
0.0232527
-0.000735684
2.76169e-06
-0.023498
0.00334429
0.022751
-0.0029903
-8.03501e-06
-0.023097
0.0056087
0.0220674
-0.00515616
-5.82601e-05
-0.0224617
0.00775628
0.0212209
-0.00721367
-1.98258e-05
-0.0217437
0.0097907
0.0201841
-0.00916598
-9.31806e-05
-0.0207156
0.0116872
0.0190162
-0.0109876
1.44811e-05
-0.0197304
0.0134632
0.0176418
-0.012695
-0.00015035
-0.0182597
0.0150738
0.0162366
-0.0142438
9.08626e-05
-0.0171575
0.0165667
0.0145178
-0.0156817
-0.000274048
-0.0151287
0.0178508
0.0129801
-0.0169166
0.000268579
-0.0141829
0.0190473
0.0108451
-0.018071
-0.000568053
-0.0112534
0.0199617
0.0091746
-0.018948
0.000769892
-0.0109582
0.0208981
0.0063102
-0.0198535
-0.001436
-0.00591879
0.0214109
0.00336487
-0.0203375
0.00284586
-0.00728422
0.0218886
0.00244904
-0.0207889
-0.00678954
0.0032408
0.0219688
0.003894
-0.0209038
0.00347775
-0.00843669
-0.0212824
7.60249e-05
0.0199848
0.00122153
-0.0253744
-0.0049757
0.00518987
0.0237951
0.00136519
-0.0244483
-0.0012086
0.0071776
0.0229306
-0.00445129
-0.0234516
-0.0115859
0.0116786
0.0220217
0.00133707
-0.0216804
-0.0101893
0.0116231
0.0203885
-0.000141859
-0.0199813
-0.0142484
0.0150928
0.0188504
0.000286468
-0.0178958
-0.015146
0.0159722
0.0169243
0.000145207
-0.0157264
-0.0174493
0.0180988
0.0149259
0.000150958
-0.0134082
-0.0184663
0.0189881
0.0127711
0.000115326
-0.0110477
-0.0198195
0.020183
0.0105707
0.00011349
-0.00865074
-0.0204879
0.0207306
0.00832468
8.32659e-05
-0.00626538