/*--------------------------------*- C++ -*----------------------------------*\
  =========                 |
  \\      /  F ield         | OpenFOAM: The Open Source CFD Toolbox
   \\    /   O peration     | Website:  https://openfoam.org
    \\  /    A nd           | Version:  10
     \\/     M anipulation  |
\*---------------------------------------------------------------------------*/
FoamFile
{
    format      ascii;
    class       volVectorField;
    location    "0.1";
    object      U;
}
// * * * * * * * * * * * * * * * * * * * * * * * * * * * * * * * * * * * * * //

dimensions      [0 1 -1 0 0 0 0];

internalField   nonuniform List<vector> 
116798
(
(1.98639 -9.73522 0.60944)
(-2.00035 0.98842 -2.87942)
(-3.06295 5.71744 -4.50334)
(-2.00078 5.04994 -3.97565)
(0.393151 3.76903 -3.18371)
(2.48584 2.51525 -2.45223)
(4.23007 1.25404 -1.79926)
(5.69941 0.123313 -1.26832)
(6.94948 -0.784313 -0.853556)
(7.90878 -1.46549 -0.52728)
(8.56745 -1.97274 -0.256851)
(8.96425 -2.36822 -0.0111227)
(9.16384 -2.71194 0.239401)
(9.24158 -3.05194 0.486593)
(9.21765 -3.42236 0.730139)
(9.11454 -3.83812 0.970541)
(8.94687 -4.29618 1.20152)
(8.72984 -4.78427 1.4205)
(8.47321 -5.29469 1.63061)
(8.17855 -5.82858 1.83712)
(7.83714 -6.393 2.0437)
(7.43777 -6.9939 2.25254)
(6.95923 -7.63449 2.46428)
(6.38911 -8.31027 2.6798)
(5.68642 -9.01381 2.89566)
(4.85207 -9.7214 3.11267)
(3.77007 -10.4112 3.31332)
(2.51525 -11.0139 3.51934)
(0.474278 -11.4808 3.55325)
(-0.925074 -10.6795 3.71178)
(-1.47321 -0.926959 -2.28044)
(-2.7365 10.5315 -3.9297)
(-0.468626 9.9975 -3.36027)
(2.148 8.16845 -2.75345)
(3.97983 6.19971 -2.23685)
(5.55754 4.41888 -1.78573)
(6.90258 2.91588 -1.4003)
(7.97049 1.70835 -1.06679)
(8.74283 0.770459 -0.782247)
(9.22846 0.0526658 -0.539645)
(9.49427 -0.5247 -0.344764)
(9.58435 -1.04116 -0.170811)
(9.53576 -1.5444 -0.017126)
(9.39198 -2.06526 0.103436)
(9.18687 -2.60267 0.173098)
(8.94852 -3.14228 0.207359)
(8.69389 -3.67247 0.22448)
(8.42498 -4.19408 0.238629)
(8.13592 -4.71518 0.255596)
(7.81742 -5.24459 0.276058)
(7.45425 -5.78848 0.298)
(7.03723 -6.34761 0.322079)
(6.54295 -6.91976 0.345621)
(5.96946 -7.49519 0.37326)
(5.26915 -8.06286 0.39625)
(4.47065 -8.5949 0.431134)
(3.44202 -9.06519 0.447634)
(2.35432 -9.40166 0.51541)
(0.682308 -9.53436 0.414086)
(0.353844 -9.11446 0.516774)
(-0.160037 6.69252 -1.30715)
(-0.722849 15.3486 -2.27437)
(2.1885 13.7681 -1.81999)
(4.42212 10.7671 -1.3491)
(5.89496 7.94743 -1.05989)
(7.23605 5.61916 -0.847779)
(8.35322 3.74285 -0.671883)
(9.15423 2.30934 -0.507756)
(9.60915 1.2556 -0.339661)
(9.75227 0.459456 -0.167182)
(9.69166 -0.195558 -0.00837351)
(9.52127 -0.800184 0.0923511)
(9.28782 -1.36966 0.129538)
(9.03229 -1.91013 0.124329)
(8.77222 -2.42759 0.103627)
(8.50984 -2.93313 0.0865743)
(8.24124 -3.43711 0.0771542)
(7.95883 -3.94577 0.0748105)
(7.65345 -4.46211 0.0764275)
(7.31816 -4.98662 0.0807107)
(6.93893 -5.51848 0.0855363)
(6.51202 -6.05431 0.0925604)
(6.01268 -6.58908 0.0979769)
(5.45154 -7.11215 0.10827)
(4.77324 -7.61062 0.111832)
(4.04088 -8.05936 0.131459)
(3.09267 -8.43265 0.13156)
(2.19873 -8.68187 0.198482)
(0.711103 -8.79512 0.0896121)
(0.642877 -8.69448 0.222715)
(-0.0144669 9.91812 -1.01932)
(0.731339 17.1466 -1.5443)
(4.18609 15.4023 -1.1546)
(5.97241 11.6263 -0.793704)
(7.37725 8.45243 -0.617856)
(8.55147 5.89497 -0.48907)
(9.411 3.91021 -0.349471)
(9.85305 2.45756 -0.192521)
(9.91164 1.41204 -0.040089)
(9.71547 0.611379 0.0698532)
(9.41154 -0.0651672 0.122837)
(9.11078 -0.65712 0.12616)
(8.81741 -1.20692 0.102815)
(8.54548 -1.72765 0.0777512)
(8.2832 -2.23347 0.05831)
(8.01986 -2.73343 0.0453855)
(7.7472 -3.2323 0.0376)
(7.45933 -3.73228 0.0338637)
(7.14726 -4.23454 0.0325087)
(6.80684 -4.73889 0.0332768)
(6.42338 -5.24421 0.0333754)
(5.99905 -5.74617 0.0359966)
(5.50589 -6.23928 0.0361059)
(4.96965 -6.71261 0.0422287)
(4.32148 -7.15492 0.0394143)
(3.6628 -7.54434 0.0567656)
(2.78176 -7.86539 0.0513064)
(2.0491 -8.08352 0.12616)
(0.614167 -8.22818 -0.00217838)
(0.732354 -8.20391 0.153961)
(-0.0431781 11.2527 -0.838243)
(1.70611 17.3902 -1.19429)
(5.52575 15.6178 -0.818622)
(7.26377 11.6153 -0.517239)
(8.63614 8.32445 -0.373)
(9.57268 5.73938 -0.252147)
(10.0273 3.82678 -0.105116)
(10.0147 2.47138 0.0290098)
(9.71384 1.49036 0.101185)
(9.31315 0.729499 0.114378)
(8.92035 0.0872201 0.102204)
(8.60343 -0.47574 0.0857821)
(8.31505 -1.00437 0.0692586)
(8.05158 -1.50812 0.0554566)
(7.7951 -1.99917 0.0435375)
(7.53464 -2.48468 0.0339646)
(7.26228 -2.96856 0.0269858)
(6.97365 -3.4521 0.0226982)
(6.66024 -3.93511 0.0202129)
(6.32059 -4.41586 0.020065)
(5.93946 -4.89183 0.018791)
(5.52529 -5.35799 0.0205564)
(5.04579 -5.80893 0.01897)
(4.54076 -6.2347 0.0246655)
(3.92607 -6.62648 0.0193723)
(3.33727 -6.96688 0.0380757)
(2.50898 -7.24822 0.0311999)
(1.89698 -7.44771 0.114932)
(0.471431 -7.60685 -0.0388371)
(0.732496 -7.61798 0.145825)
(-0.128474 11.7069 -0.742831)
(2.36514 16.5854 -0.996256)
(6.31923 14.7336 -0.628435)
(8.24277 10.9533 -0.372485)
(9.47506 7.81751 -0.21675)
(10.0211 5.44157 -0.0747567)
(10.0051 3.7518 0.050758)
(9.6425 2.55373 0.110053)
(9.17679 1.66604 0.106882)
(8.74349 0.952673 0.0840471)
(8.37064 0.330712 0.0672266)
(8.06759 -0.231624 0.0613033)
(7.80253 -0.763178 0.0553669)
(7.55183 -1.26985 0.0477657)
(7.30446 -1.76032 0.0387231)
(7.05081 -2.24044 0.030313)
(6.78375 -2.7137 0.0236549)
(6.50025 -3.1813 0.0194089)
(6.19173 -3.64321 0.0163483)
(5.85912 -4.09771 0.0154205)
(5.48658 -4.54248 0.0136654)
(5.08824 -4.97275 0.0149964)
(4.6275 -5.38413 0.0125469)
(4.15715 -5.76758 0.0182994)
(3.57488 -6.1171 0.0116871)
(3.05194 -6.41817 0.0314272)
(2.26198 -6.66954 0.0242779)
(1.75387 -6.85077 0.116946)
(0.315089 -7.0129 -0.0685995)
(0.722277 -7.02466 0.148359)
(-0.13264 11.8658 -0.739095)
(2.82714 15.0502 -0.939929)
(6.59993 13.1855 -0.609574)
(8.57556 9.95787 -0.371245)
(9.52192 7.27557 -0.164388)
(9.68165 5.27453 0.00559358)
(9.38079 3.8255 0.0894947)
(8.92488 2.75132 0.0942629)
(8.48522 1.90949 0.0709929)
(8.11594 1.20285 0.0531877)
(7.79822 0.575399 0.0444173)
(7.52104 -0.00822408 0.0471703)
(7.28666 -0.536369 0.0457581)
(7.05306 -1.04254 0.0416803)
(6.81958 -1.52639 0.0347763)
(6.57759 -1.99503 0.0276466)
(6.32044 -2.45294 0.021606)
(6.04651 -2.90171 0.0176192)
(5.74713 -3.34135 0.014369)
(5.42615 -3.76992 0.0132258)
(5.0662 -4.18529 0.0110098)
(4.68785 -4.58286 0.012582)
(4.24752 -4.95916 0.00890629)
(3.81336 -5.3062 0.0151846)
(3.26134 -5.62025 0.00743878)
(2.79923 -5.8893 0.0294998)
(2.03744 -6.11629 0.0221046)
(1.6182 -6.28105 0.125101)
(0.159112 -6.43968 -0.0942783)
(0.700347 -6.44872 0.158119)
(0.0487965 11.8686 -0.766756)
(3.08435 13.273 -0.959204)
(6.31608 11.5965 -0.684264)
(8.06461 9.07833 -0.388853)
(8.71931 6.92957 -0.120969)
(8.7199 5.25872 0.0352363)
(8.42051 3.97783 0.0713786)
(8.06835 2.96985 0.059811)
(7.74368 2.14369 0.043041)
(7.46376 1.43424 0.0349052)
(7.21071 0.80162 0.0311464)
(6.97336 0.21956 0.0344224)
(6.76735 -0.319312 0.0382105)
(6.55678 -0.823866 0.0366313)
(6.34077 -1.30181 0.0313899)
(6.1142 -1.76027 0.0254002)
(5.87082 -2.20391 0.0199866)
(5.61054 -2.63457 0.0163736)
(5.3242 -3.05262 0.0130912)
(5.01878 -3.45635 0.0120355)
(4.67448 -3.84418 0.00932673)
(4.31885 -4.21187 0.0108138)
(3.90041 -4.55704 0.00647034)
(3.5028 -4.87246 0.0137225)
(2.97827 -5.1568 0.00419413)
(2.57347 -5.39876 0.0290157)
(1.83191 -5.60534 0.0202348)
(1.49445 -5.75397 0.135176)
(0.0106825 -5.90594 -0.121831)
(0.679198 -5.90787 0.168931)
(0.338319 11.3943 -0.741161)
(3.03043 11.6603 -0.807668)
(5.46666 10.2959 -0.564322)
(6.87698 8.38152 -0.236177)
(7.4281 6.65769 -0.031368)
(7.51713 5.23188 0.0466526)
(7.37726 4.07353 0.0466385)
(7.19196 3.11854 0.0361062)
(6.99442 2.31268 0.0263233)
(6.8061 1.61055 0.0232519)
(6.61849 0.982283 0.0222495)
(6.43183 0.405809 0.0254452)
(6.24753 -0.127818 0.030902)
(6.06798 -0.62664 0.0313366)
(5.87264 -1.0944 0.027758)
(5.66469 -1.53908 0.023044)
(5.43812 -1.96597 0.0184097)
(5.19446 -2.37723 0.0152967)
(4.92384 -2.77354 0.0120748)
(4.63655 -3.15336 0.0111591)
(4.30986 -3.51557 0.00809445)
(3.97888 -3.85623 0.00967558)
(3.58213 -4.17397 0.00472247)
(3.22108 -4.46212 0.0127521)
(2.72111 -4.72121 0.00233719)
(2.37021 -4.94018 0.0298662)
(1.64325 -5.12949 0.0198448)
(1.38041 -5.26409 0.146885)
(-0.128634 -5.40769 -0.14945)
(0.656795 -5.40399 0.181221)
(0.486129 10.2466 -0.624508)
(2.68533 10.1813 -0.482953)
(4.27349 9.10026 -0.261553)
(5.50121 7.63785 -0.037642)
(6.10101 6.28128 0.0262637)
(6.35336 5.07804 0.0427524)
(6.38258 4.04867 0.0278987)
(6.35081 3.16619 0.0220778)
(6.2636 2.40215 0.0157758)
(6.1601 1.72578 0.0155357)
(6.03423 1.1161 0.0157489)
(5.89611 0.555496 0.0187449)
(5.74245 0.0292974 0.0243317)
(5.59133 -0.451623 0.0263002)
(5.41807 -0.905544 0.0241386)
(5.23057 -1.33488 0.020631)
(5.02274 -1.74442 0.0167762)
(4.79778 -2.13632 0.0142113)
(4.54477 -2.51149 0.0111001)
(4.27752 -2.86858 0.0104259)
(3.96965 -3.207 0.0070625)
(3.66432 -3.52308 0.0090169)
(3.28912 -3.81643 0.00337192)
(2.96412 -4.08066 0.0123057)
(2.48599 -4.31789 0.000985922)
(2.18631 -4.51699 0.0313275)
(1.46975 -4.69149 0.0198078)
(1.27629 -4.81334 0.159345)
(-0.257154 -4.94614 -0.178929)
(0.635613 -4.93836 0.193192)
(0.465647 8.77689 -0.483013)
(2.26777 8.70705 -0.206085)
(3.11438 7.87125 -0.0178269)
(4.35152 6.81704 0.0527515)
(4.96732 5.78847 0.0352333)
(5.33914 4.79842 0.0329545)
(5.48816 3.91114 0.0144266)
(5.57302 3.11994 0.0132099)
(5.57245 2.41586 0.00846896)
(5.54155 1.78045 0.0100822)
(5.46998 1.2013 0.0105873)
(5.37707 0.665887 0.0136774)
(5.25528 0.16578 0.0177034)
(5.1322 -0.301354 0.0215177)
(4.98096 -0.738548 0.0205539)
(4.81467 -1.14972 0.018172)
(4.62653 -1.54019 0.0150967)
(4.42143 -1.91192 0.0131205)
(4.18702 -2.26599 0.0101627)
(3.94086 -2.60113 0.00977821)
(3.65231 -2.9172 0.00619204)
(3.37308 -3.21069 0.00857675)
(3.01859 -3.48211 0.00231822)
(2.72888 -3.72512 0.0121458)
(2.27017 -3.94349 0.000100771)
(2.01922 -4.12529 0.0334205)
(1.30997 -4.28722 0.0201956)
(1.18044 -4.39873 0.172951)
(-0.373029 -4.51667 -0.210019)
(0.61483 -4.50895 0.204794)
(0.435973 7.38677 -0.387694)
(1.95649 7.33626 -0.0607888)
(2.21809 6.72198 0.0820914)
(3.52287 6.01674 0.0680326)
(4.054 5.2417 0.0272157)
(4.49469 4.4424 0.0240351)
(4.70808 3.69555 0.00476074)
(4.87439 3.0027 0.00750197)
(4.9351 2.36843 0.00319269)
(4.96253 1.78413 0.00610771)
(4.93556 1.24425 0.00651043)
(4.88258 0.7407 0.00979405)
(4.79399 0.267485 0.0127965)
(4.69031 -0.177141 0.0171187)
(4.5638 -0.592836 0.0170969)
(4.41875 -0.984059 0.0157448)
(4.25041 -1.35455 0.0133788)
(4.0655 -1.7059 0.0119813)
(3.85 -2.03923 0.00918635)
(3.6254 -2.35328 0.0091402)
(3.35616 -2.64836 0.00538717)
(3.10302 -2.921 0.00848883)
(2.76811 -3.1725 0.00152221)
(2.51276 -3.39646 0.0123194)
(2.07146 -3.59822 -0.000556302)
(1.86709 -3.76472 0.0359428)
(1.16254 -3.91587 0.0207556)
(1.09305 -4.01946 0.188631)
(-0.468553 -4.11652 -0.242939)
(0.596701 -4.11346 0.215561)
(0.43934 6.23345 -0.350251)
(1.76771 6.19078 -0.0043656)
(1.60256 5.75382 0.101464)
(2.94076 5.2905 0.0714827)
(3.32519 4.69566 0.0189889)
(3.80697 4.05702 0.0180441)
(4.03914 3.43592 -0.00197965)
(4.25956 2.83833 0.00383008)
(4.35818 2.27625 -0.000779897)
(4.43022 1.74748 0.00315404)
(4.43733 1.25147 0.00318242)
(4.4177 0.784149 0.00652243)
(4.3568 0.342358 0.00906798)
(4.27441 -0.074729 0.0132947)
(4.1697 -0.468507 0.0139226)
(4.04467 -0.837991 0.0134166)
(3.89543 -1.18745 0.0116614)
(3.73043 -1.51802 0.0108157)
(3.53353 -1.83079 0.00818666)
(3.3304 -2.12442 0.00848843)
(3.07998 -2.39959 0.0046301)
(2.85251 -2.65284 0.00850957)
(2.53593 -2.8861 0.000928125)
(2.31407 -3.09279 0.012797)
(1.88835 -3.27959 -0.000848964)
(1.72815 -3.43237 0.0389905)
(1.02617 -3.57371 0.0216116)
(1.01373 -3.66974 0.207003)
(-0.535779 -3.74716 -0.272647)
(0.581479 -3.74985 0.22544)
(0.458551 5.31444 -0.337432)
(1.65829 5.27522 0.0193764)
(1.1969 4.96272 0.0919436)
(2.51977 4.65045 0.0800031)
(2.74276 4.18296 0.0135897)
(3.25108 3.67372 0.0149243)
(3.47001 3.15847 -0.00640856)
(3.72531 2.64756 0.00168415)
(3.84279 2.15469 -0.00367604)
(3.94757 1.68167 0.00108704)
(3.97888 1.2312 0.000551058)
(3.98625 0.802092 0.00393994)
(3.9476 0.393114 0.00587069)
(3.88589 0.00089606 0.0103003)
(3.79982 -0.364126 0.0110178)
(3.69339 -0.710524 0.0111902)
(3.56214 -1.03842 0.00993205)
(3.41627 -1.34815 0.0095999)
(3.2372 -1.64072 0.00713879)
(3.055 -1.91466 0.00782634)
(2.82251 -2.17102 0.00391444)
(2.62014 -2.40612 0.00843402)
(2.32079 -2.62268 0.000418158)
(2.13146 -2.81353 0.0135772)
(1.71934 -2.98678 -0.00100641)
(1.60073 -3.12679 0.0423936)
(0.899582 -3.2587 0.0222254)
(0.940924 -3.34489 0.225329)
(-0.590694 -3.41063 -0.298)
(0.567433 -3.41618 0.234511)
(0.480296 4.57812 -0.331635)
(1.59229 4.54247 0.034303)
(0.931945 4.31833 0.0718986)
(2.20269 4.09407 0.0930757)
(2.27437 3.71702 0.0108048)
(2.80112 3.30944 0.0141807)
(2.987 2.88062 -0.00918829)
(3.26416 2.44553 0.000657654)
(3.38621 2.01587 -0.0055829)
(3.51415 1.59617 -0.000133192)
(3.56113 1.19043 -0.00131002)
(3.58967 0.79972 0.00204552)
(3.56883 0.424522 0.00329427)
(3.52515 0.0644488 0.00670888)
(3.45495 -0.277099 0.0082057)
(3.36567 -0.600373 0.00904767)
(3.25086 -0.906483 0.00826435)
(3.12295 -1.19547 0.00848001)
(2.96061 -1.46829 0.00623521)
(2.79849 -1.72327 0.00741937)
(2.583 -1.96175 0.00343921)
(2.40506 -2.17985 0.00862891)
(2.1218 -2.38092 2.8845e-05)
(1.96358 -2.55711 0.0146638)
(1.56297 -2.71774 -0.00106542)
(1.48335 -2.84596 0.0461045)
(0.781621 -2.96909 0.0224235)
(0.872215 -3.04593 0.242288)
(-0.64097 -3.10274 -0.321116)
(0.553328 -3.11009 0.242909)
(0.498063 3.97726 -0.327498)
(1.5464 3.94616 0.0481437)
(0.760868 3.78582 0.0487199)
(1.95499 3.61108 0.108309)
(1.89434 3.30027 0.00990355)
(2.43431 2.97203 0.015348)
(2.57675 2.61291 -0.0108212)
(2.86748 2.24272 0.000536924)
(2.98368 1.86912 -0.00681689)
(3.12743 1.49861 -0.000746882)
(3.18291 1.13539 -0.00257924)
(3.22774 0.78202 0.000846031)
(3.22029 0.439836 0.00153987)
(3.19187 0.109786 0.00464473)
(3.13609 -0.206189 0.00609897)
(3.06168 -0.506171 0.00743196)
(2.96154 -0.790632 0.00704308)
(2.85026 -1.05927 0.00776185)
(2.70338 -1.31292 0.00570029)
(2.56043 -1.54969 0.00751339)
(2.36094 -1.77117 0.00316946)
(2.20645 -1.97319 0.00902073)
(1.93792 -2.15995 -0.000163991)
(1.80885 -2.32213 0.015952)
(1.41796 -2.47116 -0.00107583)
(1.37506 -2.58841 0.0500932)
(0.671531 -2.70344 0.0220998)
(0.807066 -2.77158 0.257738)
(-0.68664 -2.82094 -0.341717)
(0.539434 -2.82964 0.250585)
(0.507573 3.4776 -0.323062)
(1.50727 3.45139 0.062841)
(0.651988 3.33415 0.0239225)
(1.7572 3.19039 0.122594)
(1.58371 2.93047 0.00966502)
(2.13254 2.66426 0.0178256)
(2.22735 2.36112 -0.0116852)
(2.52647 2.04588 0.00100834)
(2.62985 1.72102 -0.00758184)
(2.7841 1.39499 -0.000917246)
(2.84213 1.07111 -0.00342762)
(2.89922 0.753109 8.83842e-05)
(2.90147 0.442489 0.000307424)
(2.88628 0.14083 0.00334544)
(2.84175 -0.149749 0.00475783)
(2.78091 -0.426116 0.0063277)
(2.69387 -0.689306 0.00618639)
(2.59785 -0.938152 0.00723643)
(2.46518 -1.17336 0.00526984)
(2.34028 -1.39272 0.00762389)
(2.15563 -1.59807 0.00303396)
(2.02322 -1.78488 0.00959103)
(1.76771 -1.95767 -0.000223711)
(1.66603 -2.10713 0.0174091)
(1.28344 -2.24535 -0.0010199)
(1.27499 -2.35252 0.0543137)
(0.568705 -2.46 0.021252)
(0.745073 -2.52019 0.271746)
(-0.728078 -2.56303 -0.359651)
(0.525661 -2.57301 0.257545)
(0.507195 3.05645 -0.317881)
(1.4689 3.03367 0.0779559)
(0.581988 2.94313 -0.000958032)
(1.59714 2.82322 0.134804)
(1.32833 2.60353 0.009917)
(1.88194 2.38607 0.02125)
(1.92871 2.128 -0.0118747)
(2.23274 1.85904 0.00197888)
(2.31912 1.57625 -0.00812371)
(2.48027 1.28974 -0.000855184)
(2.53645 1.00175 -0.0039705)
(2.60256 0.716531 -0.000245418)
(2.61128 0.435716 -0.000466776)
(2.60795 0.161593 0.00236853)
(2.5706 -0.10428 0.00352969)
(2.52269 -0.358537 0.00549827)
(2.44721 -0.601305 0.0055308)
(2.36511 -0.831092 0.00691588)
(2.24527 -1.04859 0.00504462)
(2.13727 -1.25131 0.00781856)
(1.96575 -1.44119 0.00291955)
(1.85399 -1.61345 0.0102107)
(1.60996 -1.77333 -0.000139579)
(1.5341 -1.91073 0.0190547)
(1.15877 -2.03903 -0.000890007)
(1.18247 -2.13683 0.0586838)
(0.472623 -2.23719 0.0198742)
(0.685947 -2.29018 0.284441)
(-0.76572 -2.32723 -0.375305)
(0.511557 -2.33865 0.263651)
(0.499968 2.69718 -0.312695)
(1.43209 2.67577 0.092246)
(0.53302 2.60099 -0.0253487)
(1.46592 2.5023 0.145154)
(1.11722 2.31492 0.0108818)
(1.67188 2.13609 0.0253223)
(1.67233 1.91462 -0.0115615)
(1.97909 1.68448 0.00333666)
(2.04605 1.4377 -0.00824985)
(2.21153 1.18615 -0.000562827)
(2.26313 0.930119 -0.00433834)
(2.33559 0.674965 -0.000399059)
(2.3481 0.421762 -0.000945857)
(2.35375 0.173335 0.00188569)
(2.32371 -0.0690535 0.00287012)
(2.28635 -0.302005 0.00495676)
(2.22073 -0.525135 0.0050765)
(2.15106 -0.736605 0.00673227)
(2.04268 -0.937099 0.00477713)
(1.95018 -1.1239 0.0079561)
(1.79015 -1.2992 0.00293391)
(1.69753 -1.45778 0.011031)
(1.46389 -1.60551 7.87223e-05)
(1.41246 -1.73171 0.0209104)
(1.04337 -1.85071 -0.000737847)
(1.09676 -1.93983 0.0631522)
(0.382965 -2.03353 0.0181472)
(0.629468 -2.08 0.295924)
(-0.799961 -2.11193 -0.388888)
(0.496884 -2.12493 0.269005)
(0.4928 2.38722 -0.306419)
(1.39771 2.36755 0.104517)
(0.494405 2.30356 -0.0438222)
(1.35703 2.22161 0.154427)
(0.941785 2.06025 0.0117745)
(1.49416 1.91218 0.0297914)
(1.45153 1.72067 -0.0114424)
(1.75928 1.52312 0.00510756)
(1.80579 1.30709 -0.00798364)
(1.97367 1.08614 0.000178922)
(2.01872 0.858698 -0.00436952)
(2.09585 0.630709 -0.00035651)
(2.11021 0.402743 -0.00139204)
(2.12296 0.178093 0.00135818)
(2.09892 -0.0422522 0.00211391)
(2.07047 -0.25492 0.00441949)
(2.0132 -0.459362 0.00457837)
(1.95458 -0.653413 0.00655031)
(1.85611 -0.83778 0.0047149)
(1.77769 -1.00951 0.00837933)
(1.62781 -1.17115 0.00313061)
(1.55333 -1.31669 0.0120184)
(1.329 -1.45306 0.000443618)
(1.30049 -1.56875 0.0229148)
(0.936529 -1.67906 -0.000618319)
(1.01741 -1.76007 0.0676894)
(0.299347 -1.84761 0.0160782)
(0.575568 -1.88811 0.306382)
(-0.831196 -1.91541 -0.400919)
(0.48198 -1.92904 0.273618)
(0.486441 2.11946 -0.300757)
(1.36653 2.10001 0.114286)
(0.461914 2.04386 -0.0573469)
(1.26536 1.97547 0.162967)
(0.795162 1.83544 0.0125866)
(1.3427 1.712 0.0345644)
(1.26068 1.54523 -0.0105796)
(1.56822 1.37511 0.00722252)
(1.59413 1.18528 -0.00741308)
(1.76311 0.99114 0.00123714)
(1.80028 0.788968 -0.00398048)
(1.88064 0.585496 0.000197493)
(1.8948 0.380659 -0.00118278)
(1.91337 0.177891 0.00155829)
(1.89416 -0.0219555 0.00202295)
(1.87332 -0.215694 0.00434943)
(1.823 -0.402498 0.00440485)
(1.77413 -0.580103 0.00660858)
(1.68442 -0.749207 0.00474397)
(1.61905 -0.906725 0.00887875)
(1.47848 -1.05537 0.00348802)
(1.42082 -1.18896 0.0131625)
(1.20473 -1.31474 0.000921013)
(1.19739 -1.42059 0.0250157)
(0.837766 -1.52277 -0.000530185)
(0.943942 -1.59626 0.0723503)
(0.221582 -1.67807 0.013664)
(0.524117 -1.71306 0.315907)
(-0.85977 -1.73629 -0.411441)
(0.467055 -1.74997 0.277635)
(0.480413 1.88563 -0.295998)
(1.34062 1.8662 0.122294)
(0.432471 1.81774 -0.0659974)
(1.18776 1.75929 0.170879)
(0.672048 1.63663 0.0134548)
(1.21271 1.53316 0.0394898)
(1.09521 1.38697 -0.00944708)
(1.40157 1.24002 0.009567)
(1.40753 1.07279 -0.00685075)
(1.57672 0.901917 0.00256899)
(1.6052 0.72197 -0.00333105)
(1.68767 0.540565 0.00101862)
(1.70058 0.356563 -0.000727083)
(1.7237 0.173769 0.00203021)
(1.70822 -0.00741928 0.00229697)
(1.6938 -0.183195 0.00464302)
(1.64938 -0.353511 0.00461808)
(1.60921 -0.515709 0.00704771)
(1.52723 -0.67056 0.00512456)
(1.47374 -0.81473 0.009656)
(1.34134 -0.951189 0.00402737)
(1.29928 -1.07351 0.0144734)
(1.09024 -1.18935 0.00143808)
(1.10259 -1.28603 0.0271734)
(0.746545 -1.38065 -0.000436924)
(0.876052 -1.44716 0.0770657)
(0.149235 -1.52356 0.0109767)
(0.475208 -1.55348 0.324551)
(-0.885963 -1.57334 -0.420715)
(0.452635 -1.5867 0.281267)
(0.474927 1.6806 -0.291503)
(1.31788 1.66129 0.129434)
(0.409785 1.61989 -0.0735681)
(1.12205 1.56892 0.178086)
(0.568249 1.46051 0.0142947)
(1.10049 1.37343 0.0445107)
(0.95128 1.24453 -0.00822258)
(1.25582 1.11722 0.0120857)
(1.24277 0.969401 -0.0056735)
(1.41167 0.818893 0.00412586)
(1.43111 0.65865 -0.00259105)
(1.51491 0.496838 0.00207954)
(1.52578 0.331646 -3.70964e-05)
(1.55256 0.167086 0.00278552)
(1.53975 0.00293078 0.00279843)
(1.53071 -0.156197 0.00515796)
(1.49129 -0.311197 0.00501629)
(1.45895 -0.459077 0.00761157)
(1.3835 -0.600675 0.0056177)
(1.34084 -0.732301 0.0105616)
(1.21558 -0.857375 0.00466876)
(1.18786 -0.96919 0.0158446)
(0.984971 -1.07579 0.00196888)
(1.01551 -1.16394 0.0294065)
(0.662501 -1.25154 -0.000198522)
(0.81336 -1.31156 0.0816659)
(0.082005 -1.38286 0.00811324)
(0.428837 -1.40817 0.332335)
(-0.910013 -1.42514 -0.428768)
(0.438923 -1.43795 0.284542)
(0.47002 1.50035 -0.287282)
(1.29788 1.48124 0.135999)
(0.392121 1.4453 -0.0800327)
(1.06621 1.40075 0.184652)
(0.480463 1.30417 0.0149205)
(1.00312 1.23069 0.0496409)
(0.825674 1.11642 -0.00687752)
(1.128 1.00591 0.0147736)
(1.09715 0.874835 -0.0044533)
(1.26536 0.742085 0.00583951)
(1.27574 0.599229 -0.00142239)
(1.3604 0.454908 0.00336229)
(1.36864 0.306466 0.00081742)
(1.39843 0.15861 0.00372301)
(1.3872 0.0106107 0.00352573)
(1.38291 -0.133769 0.00586761)
(1.34764 -0.274633 0.00564078)
(1.32226 -0.409165 0.00838323)
(1.25221 -0.538434 0.00628618)
(1.21947 -0.658431 0.0115929)
(1.10039 -0.772981 0.00536613)
(1.0859 -0.875034 0.0172728)
(0.888251 -0.973053 0.00254264)
(0.935684 -1.05328 0.0318054)
(0.585211 -1.13439 6.01695e-05)
(0.755506 -1.18823 0.0861247)
(0.0195747 -1.25478 0.00513168)
(0.384966 -1.27602 0.339334)
(-0.932178 -1.29036 -0.435812)
(0.425933 -1.3026 0.287498)
(0.465685 1.34128 -0.283341)
(1.28029 1.32257 0.142327)
(0.37826 1.2907 -0.0857335)
(1.01857 1.25182 0.190587)
(0.405942 1.16532 0.0153106)
(0.918415 1.10311 0.0546316)
(0.71572 1.00129 -0.00534413)
(1.01553 0.905177 0.0176207)
(0.968198 0.788654 -0.0030586)
(1.13559 0.671448 0.00769834)
(1.13705 0.54392 -0.000184023)
(1.22217 0.415185 0.00478471)
(1.22737 0.281963 0.0020315)
(1.25961 0.149041 0.00487624)
(1.24935 0.0153916 0.00446191)
(1.24924 -0.115143 0.00678926)
(1.21707 -0.243052 0.00642826)
(1.19792 -0.365185 0.00927937)
(1.13256 -0.482962 0.00704285)
(1.10883 -0.592309 0.0126784)
(0.995023 -0.697121 0.00609225)
(0.992701 -0.79013 0.0187875)
(0.799596 -0.880199 0.00322328)
(0.862704 -0.953084 0.0343507)
(0.514247 -1.02808 0.000182936)
(0.702084 -1.0761 0.0903771)
(-0.0383707 -1.13823 0.00221936)
(0.343504 -1.15592 0.345692)
(-0.952583 -1.16787 -0.442037)
(0.413626 -1.17954 0.290204)
(0.461898 1.20021 -0.279741)
(1.26501 1.18236 0.148074)
(0.367059 1.15318 -0.0913135)
(0.977602 1.11967 0.195891)
(0.342498 1.04177 0.0154893)
(0.844573 0.989095 0.0593651)
(0.619298 0.897781 -0.00378213)
(0.916326 0.814132 0.0206239)
(0.853749 0.710235 -0.0015121)
(1.02031 0.606702 0.00978371)
(1.01322 0.492716 0.00122335)
(1.09862 0.377842 0.00630174)
(1.10048 0.258229 0.00324505)
(1.13464 0.138804 0.00605516)
(1.12483 0.0182589 0.00545263)
(1.12835 -0.0996682 0.00775006)
(1.09863 -0.215678 0.00726361)
(1.08504 -0.326448 0.0102211)
(1.02364 -0.433684 0.00784507)
(1.00805 -0.533169 0.0138555)
(0.898767 -0.628987 0.00693699)
(0.907748 -0.713612 0.0204501)
(0.71856 -0.796321 0.00403811)
(0.796069 -0.862349 0.036768)
(0.449038 -0.931561 0.000268584)
(0.652851 -0.974226 0.0944994)
(-0.0921846 -1.03193 -0.000609606)
(0.304622 -1.04673 0.35155)
(-0.971472 -1.05669 -0.447547)
(0.402041 -1.06771 0.29272)
(0.458315 1.07504 -0.27685)
(1.25228 1.05879 0.15139)
(0.357014 1.03144 -0.0978775)
(0.942053 1.00241 0.200541)
(0.288184 0.93204 0.0152806)
(0.78018 0.88724 0.0638084)
(0.534721 0.804875 -0.00253102)
(0.828712 0.731867 0.0236735)
(0.75205 0.639003 2.82144e-05)
(0.917711 0.547486 0.0119578)
(0.902461 0.445525 0.00278565)
(0.988075 0.343041 0.00806225)
(0.986516 0.235598 0.00468721)
(1.0223 0.128322 0.0074299)
(1.01247 0.0196208 0.00663876)
(1.01913 -0.0868592 0.00888019)
(0.99131 -0.191936 0.00830866)
(0.982657 -0.292354 0.0113886)
(0.924586 -0.38991 0.00889297)
(0.916522 -0.480301 0.0152562)
(0.811119 -0.567813 0.0080011)
(0.830539 -0.644708 0.0223075)
(0.644566 -0.720558 0.00494186)
(0.735217 -0.780128 0.0391321)
(0.389108 -0.843942 0.000566416)
(0.607702 -0.882093 0.0987848)
(-0.141806 -0.934277 -0.00394908)
(0.267123 -0.946287 0.356063)
(-0.988839 -0.956054 -0.452204)
(0.391227 -0.966161 0.295115)
(0.454501 0.963781 -0.27436)
(1.2409 0.948962 0.155214)
(0.348276 0.923935 -0.104219)
(0.911206 0.89851 0.204616)
(0.24178 0.835579 0.0144022)
(0.724135 0.796429 0.0678308)
(0.460416 0.721733 -0.00121657)
(0.75134 0.657707 0.0265296)
(0.661629 0.574428 0.00172815)
(0.82629 0.493458 0.0142788)
(0.803299 0.402122 0.00443221)
(0.889015 0.310688 0.00995859)
(0.884011 0.214186 0.00634055)
(0.921171 0.117868 0.00905503)
(0.911039 0.019862 0.00818481)
(0.920426 -0.0762212 0.0103947)
(0.894128 -0.17136 0.0097046)
(0.889953 -0.262319 0.0128215)
(0.834705 -0.35103 0.0102037)
(0.833516 -0.433077 0.0168429)
(0.731395 -0.512973 0.00936061)
(0.760344 -0.582668 0.0241414)
(0.576989 -0.652124 0.00588181)
(0.679519 -0.705623 0.0414287)
(0.333879 -0.764435 0.00116345)
(0.56634 -0.798373 0.10376)
(-0.18446 -0.842788 -0.0100852)
(0.231434 -0.85586 0.359195)
(-1.0049 -0.864817 -0.456406)
(0.381181 -0.874009 0.297436)
(0.450384 0.864624 -0.272174)
(1.23051 0.851152 0.159148)
(0.340078 0.828583 -0.110248)
(0.88339 0.806719 0.208182)
(0.203448 0.753496 0.0134)
(0.6757 0.71573 0.0713647)
(0.395041 0.647271 0.000145181)
(0.683051 0.590996 0.029213)
(0.581203 0.515951 0.00343242)
(0.744821 0.444218 0.0166452)
(0.714441 0.362297 0.00632477)
(0.800209 0.280683 0.0119537)
(0.791744 0.193948 0.00811478)
(0.830114 0.107498 0.0107384)
(0.819567 0.0191442 0.0098687)
(0.831141 -0.0674997 0.01211)
(0.806133 -0.153613 0.0112316)
(0.806063 -0.235926 0.0143539)
(0.753156 -0.316553 0.0116847)
(0.758284 -0.390893 0.0185119)
(0.658847 -0.463762 0.0106582)
(0.696592 -0.526699 0.025884)
(0.515083 -0.59023 0.00668047)
(0.628629 -0.638105 0.043786)
(0.282777 -0.692211 0.00166435)
(0.528148 -0.721842 0.108698)
(-0.223104 -0.760893 -0.0167338)
(0.19889 -0.773807 0.362049)
(-1.01994 -0.781911 -0.460494)
(0.372012 -0.790378 0.299745)
(0.446075 0.776131 -0.27024)
(1.22097 0.764044 0.16279)
(0.331649 0.744372 -0.117516)
(0.856793 0.72541 0.211505)
(0.173323 0.680013 0.0124085)
(0.63409 0.643393 0.0744279)
(0.337355 0.58043 0.0014342)
(0.622943 0.53099 0.0317222)
(0.509567 0.463118 0.00506483)
(0.672394 0.399502 0.0188339)
(0.634787 0.32577 0.0082266)
(0.720656 0.252963 0.014043)
(0.708711 0.174947 0.0100426)
(0.748168 0.097339 0.0126174)
(0.736875 0.0176911 0.0116842)
(0.750619 -0.0603994 0.0139877)
(0.726486 -0.138308 0.0128596)
(0.730182 -0.212697 0.0160096)
(0.679164 -0.285901 0.0131174)
(0.690166 -0.353126 0.0201641)
(0.592803 -0.419451 0.0116936)
(0.63861 -0.476152 0.027629)
(0.458348 -0.534207 0.00735654)
(0.58209 -0.576926 0.0461011)
(0.235358 -0.626669 0.00190903)
(0.492395 -0.652177 0.113154)
(-0.258165 -0.685546 -0.0218286)
(0.168891 -0.699254 0.364564)
(-1.03373 -0.706727 -0.463968)
(0.363651 -0.714543 0.302008)
(0.441757 0.697029 -0.268385)
(1.21203 0.686179 0.166286)
(0.322969 0.668917 -0.12378)
(0.832552 0.652193 0.214659)
(0.147712 0.611266 0.00953743)
(0.598232 0.578043 0.0773515)
(0.28647 0.52034 0.0024666)
(0.569943 0.477001 0.0342644)
(0.445786 0.415501 0.00640659)
(0.607995 0.359039 0.0209878)
(0.563519 0.292557 0.00987639)
(0.649492 0.227492 0.0160172)
(0.634028 0.157251 0.0118943)
(0.674456 0.0875976 0.014692)
(0.662213 0.0157914 0.0135489)
(0.678015 -0.0545581 0.0159203)
(0.654456 -0.124983 0.0144668)
(0.661659 -0.192134 0.0175737)
(0.612094 -0.258499 0.0143574)
(0.628455 -0.319166 0.0216442)
(0.532603 -0.379479 0.0126599)
(0.585912 -0.430489 0.0293532)
(0.40632 -0.483503 0.00788934)
(0.539624 -0.521588 0.0482884)
(0.191247 -0.567281 0.00196239)
(0.45872 -0.589102 0.117034)
(-0.28969 -0.617874 -0.0257012)
(0.141481 -0.63176 0.366713)
(-1.0463 -0.638691 -0.467094)
(0.356059 -0.64583 0.304145)
(0.437789 0.62625 -0.266966)
(1.20376 0.616585 0.169593)
(0.314444 0.601143 -0.129329)
(0.81113 0.586232 0.217325)
(0.124956 0.549513 0.00613833)
(0.567336 0.519274 0.0800671)
(0.241613 0.466371 0.00331092)
(0.523171 0.428387 0.0366741)
(0.388925 0.372611 0.00759785)
(0.550684 0.322499 0.0230049)
(0.499724 0.262484 0.0113322)
(0.5859 0.204303 0.0177882)
(0.566984 0.140983 0.0135234)
(0.608302 0.0784469 0.0165909)
(0.594923 0.013681 0.0151513)
(0.612614 -0.0496735 0.0176041)
(0.589309 -0.113257 0.0158812)
(0.599736 -0.173778 0.0190358)
(0.55122 -0.233906 0.0155593)
(0.572529 -0.288579 0.0231508)
(0.477732 -0.343395 0.0136191)
(0.538025 -0.389223 0.0309535)
(0.358704 -0.437671 0.00830652)
(0.500892 -0.47152 0.050247)
(0.150238 -0.513524 0.00187168)
(0.427225 -0.532034 0.120458)
(-0.318335 -0.557039 -0.0293033)
(0.116575 -0.570658 0.36857)
(-1.05774 -0.577165 -0.469951)
(0.34915 -0.583581 0.306153)
(0.434903 0.562889 -0.266335)
(1.19639 0.554276 0.172649)
(0.306329 0.540231 -0.134251)
(0.792198 0.526628 0.219588)
(0.105189 0.493324 0.00288788)
(0.540637 0.466346 0.0826075)
(0.20206 0.417854 0.00398853)
(0.481855 0.384667 0.0389101)
(0.338255 0.334018 0.00861684)
(0.499651 0.289547 0.024889)
(0.442534 0.235329 0.0126928)
(0.528988 0.183322 0.0194774)
(0.506715 0.126225 0.0150254)
(0.548903 0.0700874 0.018372)
(0.534301 0.0116559 0.0166382)
(0.553663 -0.0453596 0.0192102)
(0.5304 -0.102787 0.017249)
(0.543773 -0.157302 0.020485)
(0.495957 -0.21176 0.0167049)
(0.521865 -0.261001 0.0245493)
(0.427782 -0.31084 0.0144249)
(0.494605 -0.351967 0.0323944)
(0.315216 -0.396261 0.0085996)
(0.465604 -0.426272 0.0520684)
(0.112138 -0.464939 0.00173219)
(0.397839 -0.480458 0.123447)
(-0.344411 -0.50229 -0.0326577)
(0.093951 -0.515365 0.370207)
(-1.06819 -0.521565 -0.472543)
(0.342867 -0.527219 0.308032)
(0.432597 0.506082 -0.265985)
(1.18994 0.498478 0.175371)
(0.29914 0.486211 -0.138024)
(0.774882 0.472635 0.221233)
(0.0885103 0.442902 -3.62007e-05)
(0.517497 0.418693 0.0848884)
(0.167189 0.374265 0.00445106)
(0.445319 0.345341 0.040966)
(0.293022 0.299277 0.00946221)
(0.454271 0.259855 0.0266115)