/*--------------------------------*- C++ -*----------------------------------*\
  =========                 |
  \\      /  F ield         | OpenFOAM: The Open Source CFD Toolbox
   \\    /   O peration     | Website:  https://openfoam.org
    \\  /    A nd           | Version:  10
     \\/     M anipulation  |
\*---------------------------------------------------------------------------*/
FoamFile
{
    format      ascii;
    class       volVectorField;
    location    "0.1";
    object      U_0;
}
// * * * * * * * * * * * * * * * * * * * * * * * * * * * * * * * * * * * * * //

dimensions      [0 1 -1 0 0 0 0];

internalField   nonuniform List<vector> 
116798
(
(1.96815 -9.68095 0.570734)
(-2.05754 1.09221 -2.90053)
(-3.06499 5.73668 -4.501)
(-1.95751 5.05837 -3.97473)
(0.455272 3.78561 -3.18494)
(2.54845 2.52495 -2.4533)
(4.29249 1.2645 -1.80182)
(5.75885 0.140084 -1.27139)
(6.99584 -0.762092 -0.858582)
(7.94039 -1.43669 -0.533225)
(8.58632 -1.93864 -0.263652)
(8.97418 -2.33055 -0.0195226)
(9.16856 -2.67311 0.229362)
(9.24378 -3.01415 0.476128)
(9.2194 -3.38656 0.719055)
(9.11684 -3.80478 0.959277)
(8.95038 -4.2653 1.19033)
(8.73492 -4.75552 1.40967)
(8.48008 -5.26785 1.62042)
(8.18735 -5.80356 1.8278)
(7.84795 -6.36987 2.03539)
(7.45063 -6.9729 2.24532)
(6.97403 -7.61603 2.45822)
(6.40567 -8.29494 2.67501)
(5.70414 -9.00239 2.89227)
(4.87035 -9.71466 3.11084)
(3.78715 -10.4099 3.31315)
(2.53041 -11.0182 3.5209)
(0.482948 -11.4907 3.55611)
(-0.923512 -10.6915 3.71811)
(-1.4765 -0.837701 -2.27366)
(-2.73112 10.5278 -3.92365)
(-0.436903 9.98038 -3.35179)
(2.19298 8.14991 -2.74635)
(4.02669 6.18135 -2.23053)
(5.60848 4.40683 -1.78059)
(6.95216 2.9137 -1.39655)
(8.01348 1.71752 -1.06494)
(8.77613 0.792611 -0.782262)
(9.24973 0.0850055 -0.539733)
(9.50591 -0.485979 -0.343353)
(9.5882 -1.00091 -0.16959)
(9.5356 -1.50522 -0.0159903)
(9.39032 -2.02824 0.10389)
(9.18548 -2.56802 0.172382)
(8.94829 -3.10981 0.205873)
(8.69543 -3.64198 0.22269)
(8.42849 -4.16556 0.237001)
(8.14144 -4.68862 0.254244)
(7.82492 -5.22004 0.274958)
(7.46365 -5.76605 0.297096)
(7.04847 -6.32749 0.321337)
(6.55581 -6.90223 0.345005)
(5.98376 -7.48062 0.372795)
(5.28418 -8.05166 0.395889)
(4.48605 -8.58741 0.431002)
(3.45588 -9.06172 0.447529)
(2.3668 -9.40194 0.515616)
(0.688812 -9.53819 0.413863)
(0.356544 -9.1188 0.519564)
(-0.172911 6.72372 -1.30875)
(-0.715866 15.3222 -2.27496)
(2.23757 13.7317 -1.81366)
(4.45862 10.7163 -1.3457)
(5.9431 7.90758 -1.05838)
(7.28654 5.59232 -0.847145)
(8.39841 3.73355 -0.670895)
(9.1866 2.31924 -0.505382)
(9.62587 1.28142 -0.335736)
(9.75636 0.494583 -0.163162)
(9.68505 -0.156609 -0.00529241)
(9.51279 -0.76249 0.0941499)
(9.27916 -1.33348 0.12984)
(9.02523 -1.87528 0.123937)
(8.76745 -2.39412 0.102891)
(8.50744 -2.90122 0.0860123)
(8.24099 -3.40693 0.0767543)
(7.9607 -3.91743 0.0744765)
(7.65729 -4.43567 0.0761529)
(7.32386 -4.96218 0.0804722)
(6.94633 -5.49615 0.08532)
(6.52103 -6.03426 0.0923723)
(6.023 -6.57152 0.0977963)
(5.46302 -7.0973 0.108147)
(4.78509 -7.59871 0.111699)
(4.05304 -8.05053 0.131467)
(3.10309 -8.42699 0.131447)
(2.20849 -8.67901 0.198612)
(0.715242 -8.79474 0.0890293)
(0.645047 -8.69479 0.225353)
(-0.027557 9.94087 -1.02093)
(0.74797 17.1051 -1.54657)
(4.24044 15.3358 -1.15041)
(6.01496 11.5544 -0.792201)
(7.4296 8.39817 -0.617908)
(8.59965 5.86082 -0.488057)
(9.44338 3.90117 -0.345617)
(9.86381 2.47193 -0.186407)
(9.90461 1.44166 -0.034699)
(9.69987 0.647518 0.0720085)
(9.3927 -0.0301515 0.121935)
(9.09473 -0.619537 0.124943)
(8.80448 -1.17043 0.101666)
(8.53567 -1.6928 0.0771296)
(8.27622 -2.20047 0.0580554)
(8.01539 -2.70237 0.0452879)
(7.745 -3.20316 0.0375538)
(7.45925 -3.70503 0.033821)
(7.14911 -4.20917 0.032456)
(6.81046 -4.71542 0.0332009)
(6.42862 -5.22272 0.0333396)
(6.00576 -5.72677 0.0359688)
(5.51369 -6.22212 0.0360555)
(4.97849 -6.69782 0.0422192)
(4.33044 -7.14267 0.0393579)
(3.67217 -7.53464 0.0568396)
(2.78928 -7.85823 0.0512074)
(2.05672 -8.0785 0.12633)
(0.616306 -8.22508 -0.00293039)
(0.733805 -8.20129 0.156649)
(-0.0557756 11.2823 -0.842354)
(1.73447 17.3322 -1.19696)
(5.57615 15.517 -0.817665)
(7.31396 11.5264 -0.517846)
(8.68434 8.26126 -0.372827)
(9.60232 5.70714 -0.248575)
(10.0293 3.82591 -0.0985261)
(9.99463 2.4931 0.0340242)
(9.68403 1.52403 0.102212)
(9.28412 0.767903 0.112648)
(8.89507 0.127714 0.0998054)
(8.58379 -0.438845 0.0843121)
(8.29959 -0.969228 0.0684386)
(8.03943 -1.47508 0.0551427)
(7.78593 -1.96816 0.0434735)
(7.52811 -2.45554 0.0339904)
(7.25814 -2.94117 0.0270357)
(6.97168 -3.4264 0.0227485)
(6.66023 -3.9111 0.020212)
(6.32232 -4.39356 0.0200855)
(5.94271 -4.87133 0.0187969)
(5.52992 -5.33936 0.0205625)
(5.05137 -5.7923 0.0189435)
(4.54732 -6.22012 0.0246824)
(3.93261 -6.61404 0.0193248)
(3.34441 -6.95653 0.038168)
(2.51424 -7.23994 0.0310948)
(1.90289 -7.44109 0.11514)
(0.472014 -7.60171 -0.039644)
(0.733122 -7.61318 0.14868)
(-0.134839 11.7543 -0.751367)
(2.40464 16.5044 -1.00139)
(6.35864 14.6087 -0.632796)
(8.27985 10.8572 -0.377547)
(9.4931 7.76037 -0.21751)
(10.009 5.42424 -0.0706341)
(9.96772 3.76424 0.0547257)
(9.59608 2.58305 0.110152)
(9.13359 1.7025 0.104535)
(8.70853 0.990834 0.0814874)
(8.34433 0.368431 0.0650075)
(8.04323 -0.196706 0.0600201)
(7.78476 -0.730194 0.0546976)
(7.53756 -1.23908 0.0474861)
(7.2933 -1.73147 0.0386401)
(7.0424 -2.2133 0.0303195)
(6.77781 -2.68816 0.0236974)
(6.49652 -3.1573 0.0194594)
(6.18997 -3.62075 0.0163866)
(5.8591 -4.07678 0.0154524)
(5.48803 -4.52316 0.0136792)
(5.09101 -4.95508 0.0150116)
(4.63113 -5.36818 0.0125317)
(4.16176 -5.75338 0.0183394)
(3.5794 -6.1047 0.0116665)
(3.05723 -6.40747 0.0315551)
(2.26539 -6.66052 0.0242255)
(1.75845 -6.84301 0.1172)
(0.314481 -7.0063 -0.0694937)
(0.722162 -7.01827 0.151349)
(-0.123478 11.9295 -0.750125)
(2.86914 14.9526 -0.949649)
(6.61581 13.0643 -0.620271)
(8.57156 9.87957 -0.37729)
(9.48756 7.24262 -0.16214)
(9.62356 5.27572 0.0100983)
(9.31514 3.84681 0.0900293)
(8.86573 2.78212 0.0919849)
(8.43723 1.94344 0.068543)
(8.07826 1.23696 0.0514411)
(7.76897 0.608644 0.0430095)
(7.49657 0.0240778 0.0457111)
(7.26657 -0.506278 0.0450103)
(7.0369 -1.01463 0.0413601)
(6.8067 -1.50011 0.0346519)
(6.56754 -1.97021 0.0276244)
(6.31292 -2.42948 0.0216348)
(6.04125 -2.87956 0.017666)
(5.74384 -3.3205 0.0144114)
(5.4246 -3.7504 0.0132616)
(5.06606 -4.16715 0.0110261)
(4.68903 -4.56613 0.0125984)
(4.2495 -4.9439 0.0088923)
(3.81634 -5.29241 0.0152294)
(3.2642 -5.60798 0.00741672)
(2.80305 -5.87841 0.0296378)
(2.03941 -6.10677 0.0220771)
(1.62169 -6.27249 0.125384)
(0.157608 -6.43203 -0.0951935)
(0.699513 -6.44121 0.161249)
(0.0767227 11.9157 -0.774032)
(3.11062 13.1791 -0.959368)
(6.29315 11.5044 -0.683837)
(8.00753 9.02822 -0.379562)
(8.63949 6.91417 -0.110669)
(8.63593 5.26544 0.0392158)
(8.3452 3.99699 0.0702672)
(8.00701 2.99502 0.0577194)
(7.69502 2.17126 0.0414044)
(7.42502 1.46235 0.0337834)
(7.17975 0.829416 0.0302114)
(6.94808 0.246493 0.0335711)
(6.74606 -0.293637 0.0377201)
(6.53947 -0.799058 0.0362849)
(6.32661 -1.27818 0.0312153)
(6.10285 -1.73779 0.0253393)
(5.862 -2.18252 0.019992)
(5.60398 -2.61426 0.0164073)
(5.31961 -3.0334 0.0131271)
(5.0159 -3.43825 0.0120676)
(4.67299 -3.82724 0.00934298)
(4.31866 -4.19613 0.0108362)
(3.90098 -4.54253 0.00646246)
(3.50442 -4.85918 0.013778)
(2.97976 -5.14477 0.00416258)
(2.57609 -5.38784 0.0291623)
(1.83273 -5.59552 0.0201141)
(1.49702 -5.7449 0.135475)
(0.00849751 -5.89758 -0.122756)
(0.677693 -5.89961 0.172177)
(0.368395 11.3781 -0.740428)
(3.0284 11.574 -0.786782)
(5.40339 10.2217 -0.541533)
(6.78683 8.33701 -0.215229)
(7.33313 6.63945 -0.0219496)
(7.43109 5.23112 0.0479474)
(7.30471 4.08367 0.045147)
(7.13349 3.13499 0.0346913)
(6.94707 2.33258 0.0252419)
(6.76768 1.63218 0.0224851)
(6.58708 1.00468 0.0215891)
(6.40611 0.428555 0.0247965)
(6.22557 -0.106377 0.0306645)
(6.05003 -0.60501 0.0309832)
(5.85762 -1.07352 0.0275552)
(5.6524 -1.51899 0.0229539)
(5.42831 -1.94669 0.0183951)
(5.18687 -2.35879 0.0153171)
(4.91818 -2.75595 0.0121032)
(4.63258 -3.13667 0.0111868)
(4.30724 -3.49983 0.00810928)
(3.97755 -3.84147 0.00969884)
(3.58155 -4.16023 0.00471049)
(3.22158 -4.44938 0.01279)
(2.72149 -4.7095 0.00230687)
(2.37187 -4.92936 0.0300301)
(1.64317 -5.11959 0.019733)
(1.38223 -5.25473 0.147191)
(-0.131335 -5.3989 -0.150328)
(0.654659 -5.39526 0.184576)
(0.497779 10.1717 -0.617337)
(2.66647 10.0897 -0.457757)
(4.19424 9.02129 -0.236189)
(5.41522 7.58526 -0.0243738)
(6.01565 6.25368 0.0291456)
(6.27758 5.06719 0.0421709)
(6.31787 4.04934 0.0265519)
(6.29743 3.17426 0.0211095)
(6.21906 2.41487 0.0150299)
(6.12322 1.74131 0.0149989)
(6.00349 1.13336 0.0152575)
(5.87068 0.573905 0.0182243)
(5.72073 0.0489234 0.0234109)
(5.57294 -0.432809 0.0259038)
(5.40259 -0.887282 0.0239137)
(5.2177 -1.31711 0.0205189)
(5.01225 -1.72719 0.0167446)
(4.78943 -2.11967 0.014219)
(4.53829 -2.49548 0.011121)
(4.27266 -2.85326 0.010449)
(3.96611 -3.19244 0.00707689)
(3.66206 -3.5093 0.00903551)
(3.28758 -3.80348 0.00336346)
(2.96371 -4.06852 0.012345)
(2.48549 -4.3066 0.000953131)
(2.18718 -4.50639 0.031511)
(1.46897 -4.68162 0.019704)
(1.27748 -4.80386 0.15964)
(-0.260266 -4.93714 -0.179711)
(0.632891 -4.92938 0.196647)
(0.467853 8.68601 -0.476388)
(2.25018 8.61348 -0.190594)
(3.04567 7.79139 -0.005414)
(4.28814 6.76354 0.0560089)
(4.89828 5.75562 0.0347179)
(5.27662 4.78076 0.03196)
(5.43264 3.9048 0.0133709)
(5.52574 3.1214 0.0125798)
(5.53179 2.42261 0.00794076)
(5.50713 1.79075 0.00970241)
(5.44067 1.21397 0.0102252)
(5.35232 0.680102 0.0133142)
(5.23433 0.180843 0.0172403)
(5.11374 -0.286033 0.0211734)
(4.96542 -0.722902 0.0203322)
(4.80153 -1.13418 0.0180485)
(4.61565 -1.52492 0.0150536)
(4.41255 -1.89701 0.0131178)
(4.17994 -2.25152 0.0101777)
(3.93533 -2.58715 0.00979795)
(3.64807 -2.90379 0.00620925)
(3.37007 -3.19788 0.0086147)
(3.0163 -3.46996 0.00232335)
(2.72774 -3.71359 0.0122106)
(2.26897 -3.93262 7.53795e-05)
(2.01944 -4.11498 0.0336259)
(1.30866 -4.2775 0.0200975)
(1.18107 -4.38927 0.173206)
(-0.376549 -4.50762 -0.210656)
(0.611546 -4.49991 0.208335)
(0.43873 7.30605 -0.385401)
(1.94732 7.25472 -0.0542802)
(2.16923 6.65349 0.0850663)
(3.47981 5.96841 0.0685033)
(3.99935 5.20804 0.0260862)
(4.44485 4.42167 0.0232207)
(4.66136 3.68495 0.00398623)
(4.83353 2.99955 0.00709366)
(4.89881 2.37066 0.00281256)
(4.93113 1.79023 0.00584033)
(4.90821 1.25309 0.00624212)
(4.85904 0.751525 0.00951931)
(4.7738 0.2798 0.012457)
(4.67238 -0.164019 0.0168218)
(4.54858 -0.579461 0.0168883)
(4.40567 -0.970583 0.0156209)
(4.23938 -1.34112 0.0133304)
(4.05634 -1.69263 0.0119718)
(3.84252 -2.02621 0.00919819)
(3.61939 -2.34059 0.00915829)
(3.35139 -2.63606 0.00540769)
(3.09944 -2.90915 0.00854183)
(2.76524 -3.16114 0.00154167)
(2.51104 -3.38558 0.0124036)
(2.06972 -3.58789 -0.000559017)
(1.8668 -3.75478 0.0361715)
(1.16083 -3.90639 0.020667)
(1.0932 -4.01016 0.188828)
(-0.472472 -4.1075 -0.243429)
(0.592897 -4.1045 0.219163)
(0.44337 6.16933 -0.350674)
(1.76508 6.12631 -0.00161668)
(1.57082 5.69899 0.101282)
(2.91102 5.24873 0.07224)
(3.282 4.66406 0.0179716)
(3.76783 4.03589 0.0175229)
(4.00024 3.42321 -0.00252137)
(4.22481 2.83227 0.00357906)
(4.32626 2.27527 -0.00104684)
(4.40205 1.75036 0.00297131)
(4.41226 1.25724 0.00298661)
(4.39576 0.792083 0.00632079)
(4.33752 0.351899 0.00882754)
(4.25744 -0.0643678 0.0131376)
(4.15502 -0.45728 0.0137379)
(4.03184 -0.826419 0.0132987)
(3.88447 -1.17574 0.0116127)
(3.72117 -1.50629 0.0108032)
(3.52584 -1.81914 0.00819864)
(3.32408 -2.11295 0.00850689)
(3.07484 -2.38837 0.00465489)
(2.84851 -2.64192 0.00856533)
(2.53264 -2.87554 0.000956107)
(2.3119 -3.08258 0.0128993)
(1.88622 -3.26978 -0.000824838)
(1.72743 -3.42286 0.0392403)
(1.02419 -3.56455 0.0215407)
(1.01351 -3.6607 0.207165)
(-0.539831 -3.73833 -0.272926)
(0.577216 -3.74107 0.229083)
(0.463012 5.26457 -0.33862)
(1.65952 5.22533 0.0211245)
(1.17691 4.91955 0.0910943)
(2.49829 4.61493 0.0810488)
(2.70854 4.15463 0.0128137)
(3.22039 3.65359 0.0146846)
(3.43772 3.14508 -0.00676975)
(3.69602 2.6399 0.00155282)
(3.81501 2.15159 -0.00385258)
(3.92261 1.68222 0.000969079)
(3.95621 1.23458 0.000409569)
(3.9661 0.807698 0.00378708)
(3.9298 0.400479 0.00566171)
(3.86996 0.00969347 0.00992037)
(3.78561 -0.35471 0.010831)
(3.68097 -0.700653 0.0110809)
(3.55142 -1.02825 0.00988925)
(3.40708 -1.33783 0.00958995)
(3.22946 -1.63035 0.00715534)
(3.04851 -1.90433 0.00784902)
(2.81716 -2.16082 0.00394708)
(2.61585 -2.3961 0.00847764)
(2.31722 -2.61291 0.000461362)
(2.12895 -2.80399 0.0136975)
(1.71693 -2.97755 -0.000962423)
(1.59969 -3.11775 0.042662)
(0.897413 -3.24991 0.0221755)
(0.940345 -3.33613 0.225419)
(-0.595012 -3.40202 -0.298173)
(0.562732 -3.40765 0.23819)
(0.484684 4.53891 -0.33309)
(1.59563 4.50347 0.035852)
(0.919534 4.28393 0.071112)
(2.18648 4.064 0.0944954)
(2.24719 3.69218 0.0102629)
(2.7769 3.29092 0.0141698)
(2.96018 2.86742 -0.00941244)
(3.23955 2.43716 0.000619886)
(3.36219 2.01147 -0.00568541)
(3.49222 1.59509 -0.000196357)
(3.54081 1.19201 -0.00140281)
(3.57131 0.803455 0.00193587)
(3.55229 0.429964 0.00314958)
(3.51021 0.0712622 0.00650693)
(3.44169 -0.269423 0.00806751)
(3.35385 -0.592048 0.00895977)
(3.24052 -0.897729 0.00823425)
(3.11396 -1.18644 0.00847768)
(2.95295 -1.4591 0.00626102)
(2.79196 -1.71401 0.00745121)
(2.57755 -1.95252 0.00348807)
(2.40059 -2.1707 0.00869399)
(2.11806 -2.37194 9.93917e-05)
(1.96084 -2.54824 0.0148056)
(1.56038 -2.70908 -0.000996844)
(1.48204 -2.83742 0.04639)
(0.779338 -2.96072 0.0224)
(0.871321 -3.03753 0.24229)
(-0.645505 -3.09441 -0.321156)
(0.548235 -3.10188 0.246614)
(0.502148 3.94585 -0.328994)
(1.55075 3.9151 0.0496998)
(0.753354 3.75791 0.0482202)
(1.94242 3.58561 0.109675)
(1.87268 3.2787 0.00956251)
(2.41498 2.95533 0.0155074)
(2.55442 2.60037 -0.0109444)
(2.8468 2.2342 0.000575792)
(2.96297 1.864 -0.00686067)
(3.10823 1.49643 -0.000766478)
(3.16482 1.13565 -0.00263032)
(3.21115 0.784314 0.000776548)
(3.20514 0.443779 0.00144518)
(3.17798 0.115113 0.00451957)
(3.1238 -0.199897 0.00600037)
(3.0505 -0.499189 0.00736705)
(2.95169 -0.78313 0.00702941)
(2.84157 -1.0514 0.007772)
(2.69591 -1.30481 0.00574091)
(2.55396 -1.54143 0.00755663)
(2.35551 -1.76284 0.00323781)
(2.20189 -1.96486 0.00910652)
(1.93411 -2.15167 -7.12083e-05)
(1.80594 -2.31392 0.0161162)
(1.41528 -2.46307 -0.000977873)
(1.37354 -2.58037 0.0503943)
(0.66919 -2.69549 0.0221086)
(0.805892 -2.76358 0.257643)
(-0.691348 -2.81295 -0.341625)
(0.533997 -2.82178 0.254306)
(0.511247 3.452 -0.324568)
(1.51203 3.42616 0.0644442)
(0.647657 3.31103 0.0236972)
(1.74729 3.16878 0.123775)
(1.56641 2.91189 0.00935134)
(2.11691 2.64938 0.0180929)
(2.20871 2.34951 -0.0117169)
(2.50904 2.03757 0.00111065)
(2.61202 1.71556 -0.00757648)
(2.76736 1.39212 -0.00090035)
(2.82609 1.07043 -0.00344122)
(2.88431 0.754317 5.24488e-05)
(2.88773 0.445268 0.000251788)
(2.87389 0.144892 0.00324958)
(2.82998 -0.144684 0.00468579)
(2.77041 -0.420274 0.00628039)
(2.68456 -0.682905 0.0061937)
(2.58954 -0.931332 0.00726431)
(2.45798 -1.16623 0.00532942)
(2.33395 -1.38537 0.00767921)
(2.15029 -1.59058 0.00312782)
(2.01865 -1.77731 0.00969959)
(1.7639 -1.9501 -0.00010036)
(1.66303 -2.09955 0.0175974)
(1.28073 -2.23782 -0.000889946)
(1.27331 -2.345 0.0546278)
(0.566354 -2.4525 0.0213009)
(0.74365 -2.51261 0.271548)
(-0.732921 -2.55542 -0.359425)
(0.519934 -2.56554 0.261275)
(0.510511 3.03532 -0.319407)
(1.47381 3.01279 0.0795442)
(0.579697 2.9235 -0.000967518)
(1.58924 2.80481 0.135778)
(1.31447 2.58754 0.00973997)
(1.86913 2.37288 0.0215879)
(1.91309 2.11739 -0.0118263)
(2.21797 1.85114 0.0021278)
(2.30377 1.57075 -0.00806757)
(2.46565 1.28647 -0.000800272)
(2.52228 1.00043 -0.00394144)
(2.58921 0.716914 -0.000244066)
(2.59883 0.437549 -0.000478974)
(2.59643 0.164667 0.0023219)
(2.55995 -0.100204 0.00349791)
(2.51295 -0.353706 0.00548542)
(2.43849 -0.595876 0.00556513)
(2.35724 -0.825198 0.00695569)
(2.23841 -1.04234 0.00512838)
(2.13116 -1.24479 0.00789747)
(1.96057 -1.43447 0.00303902)
(1.84948 -1.60661 0.0103437)
(1.60621 -1.76641 1.65024e-05)
(1.53105 -1.90377 0.0192678)
(1.15609 -2.03205 -0.00072453)
(1.18067 -2.12982 0.0590075)
(0.470297 -2.23014 0.0199696)
(0.684305 -2.28304 0.284136)
(-0.770664 -2.32002 -0.374949)
(0.505589 -2.3316 0.267386)
(0.503035 2.67938 -0.314295)
(1.43735 2.65829 0.0937764)
(0.53167 2.58422 -0.0250114)
(1.45956 2.48657 0.145965)
(1.10609 2.30111 0.0108262)
(1.66124 2.12443 0.0256991)
(1.6592 1.90503 -0.0114661)
(1.96651 1.67711 0.00352438)
(2.03282 1.43232 -0.00814282)
(2.19877 1.1827 -0.000469296)
(2.25065 0.928372 -0.00426655)
(2.32366 0.674748 -0.000361317)
(2.33689 0.42287 -0.000912695)
(2.34323 0.17559 0.00188765)
(2.314 -0.0658346 0.00288466)
(2.27735 -0.29803 0.00497317)
(2.21262 -0.520544 0.00514161)
(2.14364 -0.731525 0.00679774)
(2.0362 -0.931627 0.00488822)
(1.94432 -1.11813 0.00805998)
(1.78518 -1.2932 0.00308275)
(1.69311 -1.45161 0.0111897)
(1.46026 -1.59922 0.000270878)
(1.40941 -1.72532 0.0211492)
(1.04076 -1.84427 -0.000534049)
(1.09487 -1.93331 0.0634812)
(0.380693 -2.02693 0.0182989)
(0.627634 -2.07331 0.295512)
(-0.804987 -2.10514 -0.388409)
(0.49073 -2.11829 0.272743)
(0.496117 2.37233 -0.307935)
(1.4032 2.35284 0.105894)
(0.493487 2.28934 -0.0430034)
(1.35184 2.20813 0.155107)
(0.93282 2.04833 0.0117934)
(1.48519 1.90189 0.0301963)
(1.44047 1.71204 -0.0113153)
(1.7485 1.51631 0.00533991)
(1.79439 1.30196 -0.00782829)
(1.9625 1.08266 0.000309324)
(2.00773 0.856696 -0.00425204)
(2.08521 0.630063 -0.00028172)
(2.10014 0.403299 -0.00131746)
(2.11339 0.179703 0.00140156)
(2.09007 -0.0397291 0.0021706)
(2.06218 -0.251665 0.00447124)
(2.00571 -0.455493 0.00467884)
(1.94763 -0.649046 0.00663863)
(1.85002 -0.833 0.00485838)
(1.77211 -1.00441 0.00850996)
(1.6231 -1.16579 0.00331002)
(1.54905 -1.31112 0.0122051)
(1.32552 -1.44734 0.000673558)
(1.29747 -1.56291 0.02318)
(0.934011 -1.67312 -0.000375179)
(1.01547 -1.75403 0.0680196)
(0.29715 -1.84146 0.0162959)
(0.573571 -1.88185 0.305862)
(-0.836281 -1.90906 -0.400326)
(0.475682 -1.92283 0.27736)
(0.489793 2.10674 -0.302376)
(1.37242 2.08745 0.115538)
(0.461037 2.03164 -0.0560172)
(1.26105 1.96387 0.163542)
(0.787913 1.82513 0.0126821)
(1.33506 1.70293 0.0349791)
(1.25134 1.53752 -0.0103249)
(1.55892 1.36888 0.00749342)
(1.58429 1.18045 -0.00725395)
(1.7533 0.987715 0.00140426)
(1.79061 0.78683 -0.00382238)
(1.87115 0.584562 0.000312145)
(1.88579 0.380806 -0.00106251)
(1.9047 0.178995 0.0016453)
(1.88614 -0.0199709 0.00212518)
(1.86571 -0.213043 0.00443869)
(1.8161 -0.399243 0.00454205)
(1.76766 -0.576355 0.0067269)
(1.67876 -0.745037 0.00492051)
(1.61376 -0.902219 0.00903885)
(1.47404 -1.05058 0.00371251)
(1.41671 -1.18395 0.0133797)
(1.20143 -1.30955 0.00119131)
(1.19442 -1.41525 0.0253056)
(0.835372 -1.51731 -0.000246576)
(0.94197 -1.59068 0.072679)
(0.219479 -1.67235 0.0139547)
(0.52198 -1.70724 0.315283)
(-0.8649 -1.73036 -0.410748)
(0.46065 -1.74418 0.281382)
(0.483813 1.8747 -0.297656)
(1.34675 1.85543 0.12348)
(0.431983 1.80738 -0.0645181)
(1.1842 1.74929 0.171346)
(0.666168 1.62768 0.0136268)
(1.20614 1.52516 0.0398982)
(1.08731 1.38009 -0.00914658)
(1.3935 1.23435 0.00987419)
(1.39902 1.0683 -0.00654)
(1.5681 0.898617 0.00278174)
(1.59669 0.719779 -0.0031264)
(1.6792 0.539439 0.00117316)
(1.69253 0.356403 -0.000561062)
(1.71586 0.174468 0.00215995)
(1.70096 -0.00609843 0.00242803)
(1.68683 -0.181052 0.00477186)
(1.64306 -0.350778 0.00479588)
(1.60321 -0.512495 0.00719944)
(1.52198 -0.666924 0.00534006)
(1.46877 -0.810756 0.00984747)
(1.33719 -0.946916 0.00429057)
(1.29535 -1.06901 0.0147218)
(1.08714 -1.18464 0.00174811)
(1.0997 -1.28116 0.0274859)
(0.744292 -1.37563 -0.000112255)
(0.874075 -1.44203 0.0773906)
(0.147239 -1.51825 0.011346)
(0.472955 -1.54809 0.323826)
(-0.891125 -1.56783 -0.419934)
(0.446147 -1.58133 0.285016)
(0.478378 1.67117 -0.293192)
(1.32423 1.65202 0.130583)
(0.409552 1.61094 -0.0719512)
(1.11909 1.56026 0.178453)
(0.563462 1.45271 0.014541)
(1.09478 1.36635 0.0449059)
(0.944576 1.23839 -0.00787224)
(1.24878 1.11207 0.0124156)
(1.23542 0.965261 -0.00534175)
(1.40406 0.815762 0.00437826)
(1.42364 0.656493 -0.00234558)
(1.50734 0.495599 0.00227845)
(1.5186 0.331255 0.00017432)
(1.54549 0.167503 0.00296042)
(1.53319 0.00414578 0.00300429)
(1.52435 -0.154443 0.00532577)
(1.48553 -0.308902 0.00523529)
(1.45341 -0.456325 0.00779818)
(1.37864 -0.597526 0.00587609)
(1.33617 -0.728798 0.0107864)
(1.21173 -0.853566 0.00497111)
(1.18412 -0.965145 0.0161229)
(0.982074 -1.07152 0.00231762)
(1.01271 -1.15951 0.0297394)
(0.660401 -1.24694 0.000169948)
(0.811397 -1.30685 0.0819821)
(0.0801242 -1.37795 0.00856683)
(0.426487 -1.40319 0.331512)
(-0.915191 -1.42005 -0.427907)
(0.432366 -1.43298 0.288294)
(0.473512 1.49217 -0.289003)
(1.30441 1.47323 0.137112)
(0.392052 1.43752 -0.0782995)
(1.06375 1.3932 0.184927)
(0.476547 1.29737 0.0152376)
(0.998124 1.22443 0.0500186)
(0.819978 1.11095 -0.00647848)
(1.12182 1.00125 0.015124)
(1.09079 0.871036 -0.00407946)
(1.25862 0.739143 0.00612635)
(1.26917 0.597131 -0.00110514)
(1.35365 0.453618 0.00360359)
(1.36225 0.305944 0.00109093)
(1.39205 0.158796 0.00393736)
(1.38128 0.0114693 0.00377009)
(1.37711 -0.13236 0.00607269)
(1.34239 -0.272706 0.00590366)
(1.31714 -0.4068 0.00860435)
(1.24776 -0.535662 0.00658122)
(1.2151 -0.655337 0.0118498)
(1.09683 -0.769584 0.00570667)
(1.08236 -0.871401 0.0175793)
(0.885567 -0.969192 0.00292931)
(0.93299 -1.04925 0.032158)
(0.583271 -1.13018 0.000473247)
(0.753574 -1.18391 0.086428)
(0.0178157 -1.25026 0.00567358)
(0.382539 -1.27144 0.338416)
(-0.937361 -1.28567 -0.434879)
(0.419318 -1.298 0.291253)
(0.469211 1.33414 -0.285092)
(1.28698 1.31561 0.143412)
(0.378295 1.28394 -0.0839001)
(1.01652 1.24524 0.190777)
(0.402721 1.15936 0.0156963)
(0.914013 1.09757 0.0549854)
(0.710869 0.996421 -0.00489836)
(1.01007 0.900971 0.0179893)
(0.962695 0.785187 -0.00264126)
(1.12962 0.668709 0.00801606)
(1.13128 0.541919 0.00017317)
(1.21613 0.413886 0.00506087)
(1.22168 0.281349 0.00234771)
(1.25385 0.149055 0.00512676)
(1.24402 0.015987 0.00475022)
(1.24396 -0.11401 0.00703093)
(1.2123 -0.24145 0.00673539)
(1.19321 -0.363153 0.00953415)
(1.12849 -0.480544 0.00737544)
(1.10476 -0.589576 0.0129658)
(0.991749 -0.694091 0.00646932)
(0.989351 -0.786868 0.0191213)
(0.797128 -0.876705 0.00364772)
(0.860123 -0.949431 0.0347221)
(0.512471 -1.02423 0.000638018)
(0.700196 -1.07215 0.0906635)
(-0.0400038 -1.13407 0.00285513)
(0.341017 -1.15173 0.344682)
(-0.957761 -1.16357 -0.441041)
(0.406965 -1.17531 0.293955)
(0.46546 1.19395 -0.281517)
(1.27186 1.17625 0.149103)
(0.367149 1.14728 -0.0893811)
(0.9759 1.11391 0.196004)
(0.339833 1.03654 0.0159402)
(0.840668 0.984172 0.0596907)
(0.615157 0.893442 -0.00329521)
(0.911484 0.810338 0.0210085)
(0.848985 0.707082 -0.00105342)
(1.015 0.604168 0.0101312)
(1.00816 0.490827 0.00162017)
(1.09321 0.376566 0.00660792)
(1.09542 0.257561 0.00359948)
(1.12944 0.138696 0.00633833)
(1.12005 0.0186977 0.00578969)
(1.12354 -0.0987519 0.00802716)
(1.09432 -0.214306 0.00761253)
(1.0807 -0.324694 0.0105083)
(1.01993 -0.431566 0.0082144)
(1.00427 -0.530752 0.014172)
(0.895773 -0.626281 0.00735011)
(0.904594 -0.710684 0.0208095)
(0.716306 -0.793162 0.00449935)
(0.793608 -0.859038 0.0371532)
(0.447427 -0.928047 0.000762859)
(0.65102 -0.970612 0.0947656)
(-0.0936919 -1.02812 0.000127623)
(0.302087 -1.04289 0.350446)
(-0.976627 -1.05274 -0.446495)
(0.395332 -1.06382 0.296462)
(0.461912 1.06955 -0.278644)
(1.25926 1.05343 0.152365)
(0.357149 1.02627 -0.0958265)
(0.940648 0.997346 0.200587)
(0.285963 0.927438 0.0157916)
(0.776698 0.882865 0.0641029)
(0.531182 0.801009 -0.00200956)
(0.824396 0.728447 0.0240698)
(0.747924 0.636142 0.000524573)
(0.912966 0.545152 0.012332)
(0.898026 0.443759 0.00322102)
(0.983228 0.34181 0.00839653)
(0.982031 0.234906 0.00508174)
(1.01761 0.128131 0.00773786)
(1.00818 0.0199262 0.0070211)
(1.01475 -0.086116 0.00920096)
(0.987409 -0.190779 0.00869985)
(0.978675 -0.29084 0.0117073)
(0.92122 -0.388053 0.00929965)
(0.913013 -0.478162 0.0156013)
(0.808396 -0.565395 0.00844938)
(0.827579 -0.642081 0.0226917)
(0.642521 -0.717704 0.0054389)
(0.732879 -0.777128 0.0395267)
(0.387658 -0.840731 0.00109844)
(0.605955 -0.878768 0.0990222)
(-0.143213 -0.930789 -0.00307864)
(0.264624 -0.942795 0.354897)
(-0.993943 -0.95248 -0.451139)
(0.384446 -0.962596 0.298846)
(0.458129 0.95894 -0.276169)
(1.24799 0.944253 0.156145)
(0.348444 0.919383 -0.102063)
(0.910053 0.894051 0.2046)
(0.239912 0.831527 0.0149693)
(0.721015 0.792537 0.0680913)
(0.457386 0.718288 -0.000658877)
(0.747473 0.654626 0.0269311)
(0.658052 0.571837 0.00226289)
(0.82204 0.491315 0.0146779)
(0.799411 0.400481 0.00490574)
(0.884661 0.309513 0.0103179)
(0.880039 0.213494 0.00677755)
(0.916938 0.117623 0.00938476)
(0.907212 0.0200521 0.00861884)
(0.916442 -0.075638 0.0108088)
(0.890609 -0.170383 0.0101401)
(0.886296 -0.261012 0.0131714)
(0.831661 -0.3494 0.0106494)
(0.830265 -0.431184 0.0172162)
(0.728931 -0.510815 0.00984734)
(0.757574 -0.580313 0.0245485)
(0.575146 -0.649547 0.00641605)
(0.677301 -0.702907 0.041829)
(0.332573 -0.761509 0.00173472)
(0.56463 -0.795366 0.103958)
(-0.185714 -0.839554 -0.00915546)
(0.229063 -0.852636 0.35804)
(-1.01005 -0.861578 -0.455533)
(0.374365 -0.870749 0.301156)
(0.454039 0.860344 -0.274)
(1.23769 0.847004 0.160041)
(0.340275 0.82456 -0.107997)
(0.882432 0.802796 0.208116)
(0.20187 0.749929 0.0140267)
(0.672899 0.712265 0.0715911)
(0.392442 0.644197 0.00074311)
(0.679576 0.588221 0.029616)
(0.578101 0.513605 0.00400614)
(0.741002 0.442254 0.0170649)
(0.711032 0.360777 0.00683837)
(0.796291 0.279572 0.0123338)
(0.788231 0.193272 0.00859666)
(0.826286 0.107207 0.0111139)
(0.816146 0.0192659 0.0103536)
(0.827511 -0.06703 0.0125982)
(0.802965 -0.152792 0.0117094)
(0.802712 -0.234802 0.0147361)
(0.750415 -0.315125 0.0121686)
(0.755277 -0.38922 0.0189158)
(0.656629 -0.461838 0.0111768)
(0.694003 -0.524589 0.0263151)
(0.51343 -0.587905 0.00723987)
(0.626529 -0.635648 0.0441938)
(0.281607 -0.689547 0.00226398)
(0.526487 -0.719085 0.108857)
(-0.224266 -0.757984 -0.015747)
(0.19658 -0.770872 0.36088)
(-1.02509 -0.77894 -0.459529)
(0.365164 -0.787392 0.303462)
(0.449761 0.77234 -0.272076)
(1.22824 0.760376 0.163648)
(0.331877 0.740804 -0.115178)
(0.855968 0.721931 0.21141)
(0.171977 0.676808 0.0130625)
(0.63158 0.640297 0.0746299)
(0.335128 0.577684 0.00205857)
(0.619814 0.528491 0.032129)
(0.506877 0.460996 0.00566173)
(0.668953 0.397706 0.0192787)
(0.631798 0.324367 0.00877066)
(0.717124 0.251916 0.0144473)
(0.705611 0.174292 0.0105675)
(0.744701 0.0970185 0.0131072)
(0.733803 0.0177375 0.012213)
(0.747318 -0.0600401 0.0145168)
(0.723635 -0.137617 0.0133751)
(0.727118 -0.211727 0.0164289)
(0.676707 -0.284645 0.0136334)
(0.687388 -0.351646 0.0205915)
(0.590814 -0.417732 0.0122368)
(0.636195 -0.474263 0.0280773)
(0.456873 -0.532107 0.00793856)
(0.580105 -0.574705 0.0465148)
(0.234317 -0.624241 0.00253625)
(0.490786 -0.649661 0.113273)
(-0.259249 -0.682882 -0.0207872)
(0.166664 -0.69657 0.363378)
(-1.03887 -0.704027 -0.462968)
(0.35677 -0.711814 0.305722)
(0.445477 0.693663 -0.270227)
(1.21938 0.682929 0.167112)
(0.323238 0.66575 -0.12138)
(0.83191 0.649109 0.214529)
(0.146466 0.608343 0.01027)
(0.595958 0.575276 0.0775416)
(0.284565 0.517889 0.00311104)
(0.567111 0.474747 0.0346756)
(0.44346 0.413585 0.00702395)
(0.604886 0.357398 0.0214472)
(0.560904 0.291266 0.0104475)
(0.646302 0.22651 0.0164337)
(0.631295 0.156623 0.012455)
(0.671311 0.0872722 0.0152717)
(0.659469 0.0157949 0.0141067)
(0.675017 -0.054289 0.0164612)
(0.651898 -0.124391 0.0150183)
(0.658857 -0.191284 0.0180403)
(0.609899 -0.257392 0.0149034)
(0.625888 -0.317855 0.0220904)
(0.53083 -0.377942 0.0132288)
(0.583657 -0.428795 0.029813)
(0.405012 -0.481606 0.00849611)
(0.537749 -0.51958 0.048696)
(0.190323 -0.565071 0.00261673)
(0.457156 -0.58681 0.117113)
(-0.290695 -0.61544 -0.0246087)
(0.139347 -0.629307 0.36551)
(-1.05143 -0.636236 -0.466076)
(0.349151 -0.64334 0.307854)
(0.441545 0.623255 -0.268819)
(1.21118 0.613699 0.170389)
(0.314749 0.598323 -0.126878)
(0.810617 0.583465 0.217158)
(0.123819 0.546985 0.0068872)
(0.565275 0.516799 0.0802389)
(0.239986 0.46418 0.00397446)
(0.520596 0.426355 0.037077)
(0.386916 0.370882 0.00823363)
(0.547866 0.321002 0.0234733)
(0.497439 0.261301 0.0119265)
(0.583013 0.203387 0.0182126)
(0.564579 0.140388 0.0141124)
(0.605449 0.0781255 0.0172095)
(0.592506 0.0136578 0.0157252)
(0.60986 -0.0494539 0.0181582)
(0.587031 -0.112747 0.0164599)
(0.597165 -0.173033 0.0195431)
(0.549261 -0.232931 0.0161299)
(0.570157 -0.287418 0.0236129)
(0.476158 -0.34202 0.01421)
(0.535921 -0.387704 0.0314222)
(0.357553 -0.435958 0.00893442)
(0.499119 -0.469705 0.0506485)
(0.14942 -0.511513 0.00255357)
(0.425703 -0.529949 0.120497)
(-0.319264 -0.554821 -0.0281679)
(0.114537 -0.568417 0.36735)
(-1.06286 -0.574934 -0.468918)
(0.342218 -0.581311 0.309857)
(0.438698 0.560221 -0.268198)
(1.20388 0.551709 0.173418)
(0.306677 0.537726 -0.131754)
(0.79182 0.524159 0.219395)
(0.104161 0.491025 0.00367403)
(0.538756 0.464124 0.0827586)
(0.200666 0.415892 0.00466852)
(0.479506 0.382833 0.0393026)
(0.336522 0.332458 0.00926737)
(0.497088 0.288185 0.0253628)
(0.440541 0.234249 0.0133065)
(0.526371 0.182475 0.0199071)
(0.504609 0.125666 0.0156362)
(0.546312 0.0697718 0.0189995)
(0.532186 0.0116108 0.0172216)
(0.551121 -0.0451647 0.0197668)
(0.528376 -0.102358 0.0178461)
(0.541407 -0.156664 0.0210151)
(0.494216 -0.210901 0.0172963)
(0.519672 -0.25997 0.0250236)
(0.426394 -0.309609 0.0150338)
(0.492643 -0.350606 0.0328683)
(0.31421 -0.394715 0.00924526)
(0.46393 -0.424635 0.052462)
(0.111417 -0.463113 0.00244377)
(0.396354 -0.478563 0.123444)
(-0.345269 -0.500273 -0.031488)
(0.0920083 -0.513322 0.36897)
(-1.0733 -0.519541 -0.471497)
(0.335914 -0.525154 0.31173)
(0.436414 0.5037 -0.267844)
(1.19748 0.496186 0.176116)
(0.299526 0.483973 -0.135499)
(0.774636 0.470435 0.221025)
(0.0875639 0.440845 0.000783668)
(0.515774 0.416701 0.0850194)
(0.165993 0.372507 0.00514461)
(0.443167 0.343684 0.0413462)
(0.291529 0.297869 0.0101244)