/*--------------------------------*- C++ -*----------------------------------*\
  =========                 |
  \\      /  F ield         | OpenFOAM: The Open Source CFD Toolbox
   \\    /   O peration     | Website:  https://openfoam.org
    \\  /    A nd           | Version:  10
     \\/     M anipulation  |
\*---------------------------------------------------------------------------*/
FoamFile
{
    format      ascii;
    class       volScalarField;
    location    "0.05";
    object      k;
}
// * * * * * * * * * * * * * * * * * * * * * * * * * * * * * * * * * * * * * //

dimensions      [0 2 -2 0 0 0 0];

internalField   nonuniform List<scalar> 
114955
(
0.0973686
0.0973422
0.097331
0.0973335
0.0973286
0.0973313
0.0973258
0.097355
0.0973434
0.0973318
0.0973307
0.0973321
0.0973288
0.0973287
0.0973725
0.097346
0.0973288
0.0973323
0.0973259
0.097327
0.0973248
0.0973548
0.097346
0.0973312
0.0973579
0.0974203
0.0973324
0.0973266
0.0975659
0.0974867
0.0974759
0.0975708
0.097388
0.0973622
0.0974427
0.097386
0.0973551
0.0973369
0.0974022
0.0973439
0.097332
0.0977092
0.0978292
0.097432
0.0973821
0.0973524
0.097339
0.0973376
0.0973562
0.0973577
0.0973356
0.0975039
0.0973986
0.0973837
0.097446
0.0973894
0.097347
0.097365
0.0974755
0.0973416
0.0973496
0.0975039
0.0973679
0.0973919
0.0975878
0.0977259
0.0975479
0.0974808
0.0973623
0.0974363
0.0975308
0.0978999
0.0977493
0.097344
0.0973574
0.0973848
0.0974796
0.0978471
0.0977078
0.0973459
0.0973413
0.0973609
0.0974769
0.0975501
0.0976037
0.0976977
0.0977425
0.0975176
0.0973676
0.0973805
0.0973476
0.0973334
0.097327
0.0973245
0.0973241
0.0976856
0.0975484
0.0975617
0.0973638
0.0974043
0.0975096
0.0973544
0.097333
0.0973293
0.0980808
0.097667
0.0975554
0.0975626
0.0976178
0.0977286
0.0978621
0.0976973
0.0973852
0.0973408
0.0979792
0.098011
0.0977949
0.0978246
0.0973973
0.0973942
0.0976827
0.0977975
0.0975804
0.0973685
0.0978058
0.0979814
0.0981417
0.097397
0.0973921
0.0973739
0.0974679
0.0977772
0.0974738
0.0975453
0.097684
0.097971
0.0977797
0.0978192
0.0974232
0.0974128
0.0976695
0.0978754
0.0977148
0.0974974
0.0975272
0.0974815
0.0974517
0.0976059
0.0978459
0.0975287
0.0987628
0.103061
0.100737
0.100176
0.0974954
0.0975005
0.0975382
0.0978452
0.0979145
0.0984292
0.10186
0.101705
0.0983696
0.098377
0.0974323
0.097413
0.0975186
0.0978756
0.0988104
0.101875
0.101246
0.0981197
0.0975382
0.0973935
0.0973742
0.0975972
0.0977053
0.0983711
0.101955
0.101272
0.0984783
0.0990355
0.0981335
0.0976736
0.0977227
0.0974019
0.0975212
0.0975187
0.09735
0.0973366
0.0973289
0.099192
0.0989854
0.0978229
0.0978231
0.0980097
0.0979007
0.0980842
0.0981742
0.0978008
0.0974069
0.0973509
0.0987011
0.0980453
0.0980362
0.0983219
0.103266
0.101117
0.103204
0.104002
0.0993001
0.0978518
0.0974311
0.099202
0.0995079
0.099262
0.102838
0.101262
0.0987389
0.098219
0.102842
0.102511
0.0989135
0.0977822
0.0984965
0.103944
0.103506
0.0982326
0.098002
0.0976191
0.0997332
0.101227
0.0981047
0.0975536
0.0979458
0.0994177
0.10409
0.101441
0.098977
0.0975118
0.0979137
0.101462
0.100116
0.100848
0.097599
0.0978235
0.0981036
0.103636
0.102165
0.0980434
0.0978538
0.0992385
0.0989664
0.0990207
0.0975359
0.0974799
0.0975979
0.0988879
0.103076
0.100054
0.0990737
0.099546
0.101352
0.0982647
0.0975591
0.0977584
0.0989844
0.101073
0.101801
0.0998986
0.102412
0.0979257
0.0976126
0.097379
0.097588
0.0984973
0.100465
0.101355
0.0988621
0.101196
0.0975017
0.0977444
0.0975404
0.0973846
0.0973703
0.0973402
0.0973319
0.0973299
0.0973265
0.0973256
0.0991551
0.0981776
0.0976603
0.0976239
0.0974027
0.0975287
0.0974251
0.0973423
0.0973378
0.0973274
0.102148
0.103615
0.102538
0.10088
0.102966
0.0983596
0.0980789
0.0977126
0.097535
0.0973631
0.0973412
0.10067
0.103131
0.10313
0.100848
0.103087
0.101708
0.103098
0.0986773
0.0977952
0.0975782
0.0973713
0.100671
0.102475
0.101484
0.0996317
0.100057
0.0996491
0.100459
0.103687
0.102342
0.0985311
0.0976049
0.100333
0.101922
0.101084
0.101545
0.099427
0.0997976
0.103052
0.105211
0.107582
0.101524
0.0987136
0.101032
0.102682
0.10284
0.10443
0.0987147
0.0977193
0.0978249
0.0995138
0.100328
0.103722
0.102285
0.0984047
0.102997
0.10326
0.104808
0.0979321
0.097573
0.0980698
0.0995699
0.0996891
0.100281
0.0978668
0.0994301
0.102772
0.10214
0.105274
0.0978025
0.0982711
0.100906
0.100841
0.098808
0.0975301
0.0976496
0.0980521
0.103043
0.103554
0.101724
0.102695
0.105002
0.102455
0.103169
0.0975162
0.0978067
0.0989081
0.100981
0.102252
0.103095
0.10238
0.101611
0.101521
0.0975477
0.0980926
0.0989508
0.10128
0.0992647
0.0990631
0.100956
0.0979768
0.0979594
0.0976429
0.0974995
0.0974273
0.0973704
0.0974101
0.0973605
0.0973377
0.0973288
0.0973268
0.0993343
0.0989562
0.0978099
0.0977741
0.0979839
0.0975929
0.0977961
0.0975323
0.0973842
0.0973392
0.0973305
0.10212
0.102826
0.103615
0.101666
0.103712
0.10177
0.103381
0.0991299
0.097593
0.0973937
0.0973511
0.0998558
0.104797
0.113357
0.11573
0.0996742
0.100702
0.106377
0.102432
0.098369
0.0975227
0.0975027
0.0983282
0.101448
0.107697
0.105331
0.107562
0.108284
0.10678
0.10324
0.100724
0.0978504
0.0978432
0.0994289
0.103954
0.109211
0.104527
0.104314
0.107582
0.105517
0.10235
0.102408
0.100964
0.0981045
0.101071
0.102486
0.102911
0.107315
0.101855
0.103717
0.108317
0.112682
0.101675
0.100682
0.0998168
0.101968
0.102087
0.105721
0.103796
0.10387
0.104512
0.106917
0.105416
0.10046
0.0995407
0.0981746
0.101747
0.104793
0.10263
0.102924
0.105576
0.10415
0.107112
0.117873
0.101331
0.0977704
0.0991103
0.101841
0.102243
0.10219
0.101337
0.100354
0.10183
0.0973789
0.102484
0.102098
0.105061
0.102465
0.102005
0.0930502
0.0658301
0.0983027
0.100114
0.0993212
0.101709
0.0744332
0.097963
0.0979874
0.097677
0.0975187
0.0974548
0.0973709
0.0973921
0.0973546
0.0973379
0.0973294
0.0973279
0.0981971
0.0993101
0.0989363
0.0977922
0.0976937
0.097602
0.097748
0.0979342
0.0975822
0.0973967
0.0973521
0.0973338
0.0985516
0.10224
0.101363
0.101797
0.10237
0.100398
0.105573
0.103324
0.0989623
0.0976083
0.0974092
0.0973726
0.0976804
0.100042
0.102803
0.109488
0.107369
0.121973
0.0999486
0.108081
0.102196
0.0982369
0.0975526
0.0975122
0.097607
0.0986085
0.0986403
0.0992877
0.103349
0.108554
0.111923
0.100291
0.105154
0.100733
0.0980804
0.0980884
0.0995459
0.0984771
0.107453
0.107563
0.0731227
0.10018
0.100944
0.103213
0.106735
0.100734
0.0985359
0.10121
0.10426
0.0997085
0.11125
0.0966744
0.0518353
0.0950819
0.109942
0.100068
0.104807
0.0996986
0.101817
0.104152
0.102507
0.104611
0.0935367
0.0929963
0.101071
0.10287
0.100289
0.0981661
0.101945
0.108025
0.101486
0.102354
0.100105
0.0650562
0.0894288
0.104571
0.097787
0.0991779
0.101717
0.104346
0.101189
0.103214
0.0942229
0.0714754
0.102011
0.107753
0.103139
0.0980853
0.0874591
0.0979561
0.0988962
0.10034
0.0975789
0.0975033
0.0976586
0.0975217
0.0974475
0.097524
0.0973657
0.0973329
0.0973265
0.0973254
0.0973252
0.0977057
0.097753
0.0984796
0.0992122
0.0980819
0.0977328
0.0980136
0.0981241
0.0976535
0.0974107
0.0973447
0.0973291
0.097326
0.0978698
0.0988627
0.102212
0.103828
0.101339
0.100863
0.105057
0.104543
0.0990615
0.0976512
0.0973979
0.0973459
0.0973321
0.0978767
0.0986159
0.100703
0.103071
0.103729
0.0997987
0.102467
0.105971
0.102853
0.0984798
0.0975417
0.0973641
0.0973458
0.0977748
0.0982035
0.100697
0.104085
0.114238
0.10269
0.113673
0.100322
0.105678
0.102605
0.098195
0.0975611
0.0974204
0.0978493
0.0984546
0.100463
0.103788
0.0998961
0.103408
0.102225
0.110729
0.100073
0.108166
0.102274
0.0981558
0.097986
0.0978173
0.0986234
0.10113
0.10257
0.104129
0.104504
0.101564
0.102214
0.107068
0.103823
0.106188
0.100899
0.0978569
0.0976875
0.0976494
0.0980686
0.0984903
0.103038
0.11245
0.10738
0.101354
0.10278
0.107966
0.103245
0.101427
0.0993796
0.0976895
0.0976937
0.0976546
0.0978448
0.0993365
0.10272
0.104657
0.102032
0.100844
0.101356
0.109145
0.102406
0.0975285
0.0976885
0.0981641
0.103104
0.109598
0.10333
0.100261
0.100802
0.0964267
0.0995608
0.100627
0.101439
0.0996614
0.0975505
0.0975412
0.0974678
0.0974238
0.0973871
0.0973512
0.0973386
0.0973304
0.0973286
0.0973262
0.0973263
0.097694
0.0976561
0.0975498
0.0974991
0.0979046
0.0976935
0.0975393
0.0977339
0.0974181
0.0973451
0.09733
0.0973286
0.0973262
0.0977067
0.0977416
0.0984547
0.099381
0.0983232
0.0978685
0.0984771
0.0986012
0.0977401
0.0974297
0.097356
0.0973355
0.0973347
0.0978409
0.0984254
0.100746
0.102633
0.101009
0.100626
0.104437
0.10471
0.0985544
0.0974647
0.0973516
0.0973488
0.097348
0.0977984
0.098157
0.100361
0.101794
0.100876
0.101236
0.0988593
0.102671
0.103466
0.0983789
0.0974905
0.09736
0.0973644
0.0978308
0.098419
0.100488
0.102422
0.102073
0.101383
0.0983816
0.0986747
0.102891
0.103134
0.0982175
0.0975173
0.0973926
0.0976922
0.0976447
0.0981525
0.0987086
0.103319
0.108272
0.0985352
0.0984054
0.098462
0.10286
0.102256
0.0981165
0.0977139
0.0977027
0.0977013
0.0976151
0.0977486
0.0995188
0.103314
0.102834
0.0996189
0.0980446
0.0983745
0.099038
0.0999707
0.0990105
0.0976629
0.0975944
0.0974919
0.0975237
0.0977638
0.0982068
0.103568
0.105564
0.0991831
0.0983118
0.0992069
0.102537
0.0975009
0.0974817
0.0975574
0.0985906
0.101528
0.100182
0.0984944
0.101467
0.102515
0.0990908
0.0995025
0.10013
0.100861
0.102666
0.0974937
0.0974342
0.0974355
0.0974106
0.0973721
0.0973723
0.0973421
0.0973325
0.0973276
0.097326
0.0973252
0.0976776
0.0976167
0.0975598
0.097548
0.0974604
0.097419
0.0973914
0.0973488
0.097341
0.0973344
0.0973309
0.0973266
0.0973256
0.0976905
0.0976565
0.0975531
0.0974987
0.0979085
0.0976945
0.0975471
0.0977183
0.0974309
0.0973503
0.0973339
0.0973295
0.0973266
0.0927562
0.0978802
0.0976814
0.0976717
0.0980167
0.0982877
0.0979771
0.097751
0.0979998
0.0979372
0.0975018
0.0973962
0.0973553
0.0973372
0.0973321
0.0927565
0.0978807
0.0976808
0.0976442
0.0978366
0.0983797
0.0977889
0.09763
0.0975668
0.0976479
0.0975215
0.0974357
0.0973624
0.0973516
0.0973499
0.0927568
0.0978791
0.097677
0.097664
0.0980103
0.0983006
0.0978871
0.0977227
0.0975466
0.0974032
0.0978072
0.0976851
0.0974596
0.0973835
0.0973736
0.0976908
0.0976655
0.0976129
0.0976895
0.0981938
0.0981491
0.0974944
0.0974033
0.0973878
0.0976634
0.0976795
0.0974733
0.0974357
0.0976678
0.0976121
0.0975335
0.0975808
0.0978171
0.0978559
0.0978152
0.0974613
0.0974162
0.0975188
0.0976943
0.0976361
0.0974434
0.0976715
0.0976172
0.0975067
0.0974804
0.0974469
0.0974637
0.0976056
0.0978005
0.0975711
0.0983432
0.102863
0.10001
0.098281
0.0974676
0.0974736
0.0975518
0.0977793
0.0979718
0.0983522
0.101722
0.10041
0.098446
0.0987237
0.0981516
0.100618
0.100708
0.0983535
0.0974893
0.0974475
0.0974116
0.0973848
0.0973592
0.0973431
0.0973314
0.0973291
0.0973267
0.0973259
0.0973257
0.0973258
0.0976745
0.0976013
0.0974813
0.0974267
0.097436
0.09741
0.0973698
0.0973704
0.0973433
0.0973342
0.097328
0.0973263
0.0973249
0.0973257
0.0927528
0.097883
0.0976786
0.0976157
0.0975291
0.0975248
0.0974787
0.0974293
0.0973887
0.0973507
0.097337
0.0973302
0.0973284
0.0973258
0.0973263
0.0927534
0.0978897
0.0976864
0.097641
0.0974786
0.0974373
0.0976902
0.0975398
0.0974393
0.0974898
0.0973831
0.0973427
0.0973308
0.097328
0.0973252
0.0927539
0.0978872
0.097683
0.0976309
0.0974846
0.0974301
0.097695
0.0975879
0.0974361
0.0973636
0.097363
0.0973419
0.0973323
0.0973264
0.0973271
0.092754
0.0978905
0.0976837
0.0976409
0.0974737
0.0974198
0.0977394
0.0975949
0.0974073
0.097359
0.097348
0.0974097
0.0973534
0.0973336
0.097325
0.0927542
0.0978844
0.0976728
0.0976122
0.0975173
0.0975859
0.0977053
0.0975206
0.0974113
0.097363
0.0973471
0.0973309
0.0973662
0.0973406
0.0973345
0.0976713
0.0976105
0.0974764
0.0974332
0.0974009
0.0974158
0.0974553
0.0973973
0.0973568
0.0973903
0.0974345
0.0973368
0.0973375
0.0976647
0.0976007
0.0974817
0.0974685
0.097459
0.097489
0.0975138
0.097367
0.097382
0.0974889
0.0975901
0.0975265
0.0974157
0.0974334
0.0973875
0.0973661
0.0973529
0.0974113
0.0976052
0.0976674
0.0977083
0.0973456
0.0973535
0.0974679
0.09771
0.0976497
0.0973457
0.0974809
0.0974294
0.0973987
0.0973769
0.0973552
0.0973473
0.0973361
0.0973313
0.0973277
0.0973262
0.0973256
0.0973254
0.092752
0.0978831
0.0976748
0.0975994
0.0974949
0.0974492
0.0974077
0.0973809
0.0973578
0.0973427
0.0973333
0.0973303
0.0973275
0.097326
0.0973255
0.0973254
0.0927526
0.0978837
0.0976754
0.0976025
0.0974935
0.0974417
0.0974311
0.0974002
0.0973697
0.0973648
0.0973417
0.0973332
0.0973279
0.0973262
0.0973252
0.0973255
0.0927532
0.097884
0.0976779
0.0976112
0.0975335
0.0975082
0.0974434
0.0974018
0.0973683
0.0973463
0.0973345
0.0973314
0.0973288
0.0973266
0.0973262
0.0973259
0.0973294
0.0927536
0.0978839
0.0976762
0.097609
0.097519
0.097503
0.0974332
0.0974032
0.0973723
0.0973646
0.0973426
0.0973345
0.0973283
0.0973277
0.0973261
0.0973277
0.0973269
0.0927538
0.0978847
0.0976761
0.0976115
0.0975319
0.0975131
0.0974393
0.0974028
0.0973641
0.097348
0.097339
0.0973307
0.0973291
0.0973275
0.097328
0.0973264
0.0973318
0.0927538
0.0978855
0.0976734
0.0976069
0.0974978
0.0974578
0.0974352
0.0974161
0.0973663
0.0973594
0.0973433
0.0973437
0.0973335
0.0973311
0.0973264
0.0973312
0.0973271
0.0976698
0.0976033
0.0974907
0.0974554
0.0974285
0.0974035
0.0973676
0.0973568
0.0973346
0.0973299
0.0973294
0.09733
0.097326
0.0973264
0.0973324
0.0976676
0.0976017
0.0974795
0.0974381
0.0973963
0.0973768
0.0973675
0.097372
0.097347
0.097371
0.0974023
0.0973297
0.0973274
0.0973307
0.0973341
0.0974379
0.0974019
0.0973954
0.097378
0.0973767
0.0973555
0.0973786
0.0973379
0.0973373
0.0973265
0.0973264
0.0973447
0.092752
0.0978893
0.0927523
0.0978893
0.0976805
0.0975994
0.0974843
0.0974312
0.0973959
0.0973715
0.097352
0.0973412
0.0973327
0.0973298
0.0973269
0.0973261
0.0973256
0.0973257
0.0927527
0.097889
0.0976804
0.0976
0.0974834
0.0974281
0.0974002
0.0973759
0.0973546
0.0973463
0.0973363
0.0973318
0.0973279
0.0973264
0.0973254
0.0973254
0.0927531
0.0978894
0.0976813
0.0976041
0.0974902
0.0974397
0.0974099
0.0973804
0.0973576
0.0973424
0.0973315
0.0973289
0.0973263
0.0973256
0.0973254
0.0973255
0.0927535
0.0978894
0.0976804
0.0976039
0.0974818
0.097425
0.0974242
0.0973895
0.0973636
0.0973554
0.0973403
0.097334
0.0973284
0.0973265
0.097325
0.0973252
0.0973254
0.0973262
0.0927538
0.09789
0.0976803
0.0976063
0.0974868
0.0974364
0.0974308
0.0973951
0.0973635
0.0973452
0.0973305
0.0973283
0.0973254
0.0973252
0.0973251
0.0973257
0.0973283
0.0973305
0.092754
0.0978906
0.0976788
0.0976051
0.0974803
0.0974249
0.097426
0.0973905
0.0973628
0.0973487
0.0973377
0.0973371
0.0973295
0.0973269
0.097325
0.0973249
0.0973253
0.0973262
0.0927543
0.0978915
0.0976783
0.0976076
0.0974906
0.0974505
0.097434
0.0973926
0.0973645
0.0973463
0.0973341
0.09733
0.0973251
0.0973259
0.0973249
0.0973265
0.0973314
0.0973277
0.0927543
0.0978928
0.097676
0.097605
0.0974792
0.097429
0.0973944
0.0973708
0.0973614
0.0973477
0.0973382
0.097335
0.0973302
0.0973267
0.0973255
0.0973249
0.0973261
0.0973285
0.0976747
0.0976069
0.0974822
0.0974415
0.0974074
0.0973874
0.0973702
0.0973453
0.0973351
0.0973336
0.0973269
0.097331
0.0973253
0.0973254
0.0973325
0.0973281
0.0974299
0.0973876
0.0973673
0.0973507
0.0973419
0.0973421
0.0973382
0.0973327
0.0973274
0.0973255
0.097325
0.0973283
0.0927539
0.0979048
0.0927541
0.0979045
0.0927544
0.0979041
0.0976925
0.0976067
0.0974921
0.0974314
0.097395
0.0973693
0.097351
0.0973413
0.0973342
0.0973303
0.0973275
0.0973261
0.0973255
0.0973254
0.0927547
0.0979042
0.0976933
0.097609
0.0974958
0.0974361
0.0973983
0.0973711
0.0973522
0.0973412
0.0973338
0.0973301
0.0973273
0.0973259
0.0973255
0.0973254
0.092755
0.0979039
0.0976931
0.0976101
0.0974967
0.0974368
0.0974008
0.0973733
0.0973532
0.0973427
0.0973348
0.0973305
0.0973274
0.097326
0.0973253
0.0973252
0.0927553
0.0979046
0.0976942
0.0976131
0.0975028
0.0974451
0.0974052
0.0973751
0.0973547
0.0973419
0.0973338
0.0973299
0.097327
0.0973257
0.0973253
0.0973252
0.0973265
0.0973277
0.0927556
0.0979045
0.097693
0.0976133
0.097501
0.0974451
0.0974043
0.0973756
0.0973544
0.0973427
0.0973351
0.0973308
0.0973275
0.097326
0.0973252
0.0973251
0.0973259
0.097327
0.0927558
0.0979057
0.0976928
0.0976146
0.0975019
0.0974463
0.0974051
0.0973764
0.0973549
0.0973429
0.0973351
0.09733
0.0973268
0.0973256
0.0973253
0.0973251
0.0973264
0.0973273
0.0927561
0.0979058
0.0976903
0.0976135
0.0974964
0.0974407
0.0974014
0.0973759
0.0973548
0.0973447
0.0973368
0.0973317
0.0973284
0.0973261
0.097325
0.0973249
0.097326
0.0973285
0.0927563
0.0979077
0.0976891
0.0976141
0.0974931
0.0974398
0.0973999
0.0973765
0.0973556
0.097345
0.0973355
0.0973295
0.0973272
0.0973257
0.0973252
0.097325
0.0973262
0.0973272
0.0976866
0.0976138
0.0974894
0.0974366
0.0973951
0.0973735
0.097355
0.0973475
0.0973401
0.0973335
0.0973318
0.0973257
0.0973249
0.0973247
0.0973264
0.0973317
0.0974355
0.0973933
0.0973753
0.0973562
0.0973483
0.0973377
0.0973293
0.0973279
0.0973263
0.0973253
0.0973251
0.0973269
0.0927579
0.0979459
0.0927581
0.0979455
0.0927583
0.0979453
0.0977372
0.0976347
0.0975147
0.097439
0.097399
0.0973699
0.0973506
0.0973405
0.097333
0.0973298
0.0973268
0.0973259
0.0973252
0.0973253
0.0927585
0.0979449
0.0977369
0.0976353
0.0975151
0.0974393
0.0974003
0.097371
0.0973514
0.0973416
0.097334
0.0973303
0.0973271
0.0973259
0.0973251
0.0973252
0.0927588
0.097945
0.0977372
0.097637
0.097517
0.097442
0.0974027
0.0973721
0.0973519
0.097341
0.0973328
0.0973296
0.0973265
0.0973257
0.097325
0.0973252
0.092759
0.0979446
0.0977364
0.097637
0.0975161
0.0974402
0.0974044
0.0973733
0.0973531
0.0973429
0.0973346
0.0973307
0.0973271
0.0973259
0.097325
0.097325
0.0973256
0.0973267
0.0927593
0.0979452
0.0977362
0.0976388
0.0975174
0.0974434
0.097406
0.0973746
0.0973531
0.0973417
0.0973328
0.0973296
0.0973262
0.0973255
0.0973249
0.0973252
0.0973262
0.0973275
0.0927595
0.0979456
0.0977349
0.0976384
0.0975152
0.0974408
0.0974043
0.0973736
0.0973533
0.0973428
0.0973345
0.097331
0.0973271
0.0973259
0.0973249
0.0973249
0.0973256
0.0973265
0.0927598
0.0979468
0.0977342
0.0976406
0.0975166
0.0974456
0.097406
0.0973752
0.0973542
0.0973428
0.0973337
0.0973301
0.097326
0.0973255
0.0973248
0.0973252
0.0973263
0.0973273
0.09276
0.0979481
0.0977321
0.0976398
0.0975119
0.097441
0.0973988
0.0973712
0.0973528
0.0973427
0.0973343
0.0973309
0.0973269
0.0973258
0.0973249
0.0973249
0.0973258
0.097327
0.0927603
0.0979496
0.0977306
0.0976416
0.0975118
0.0974443
0.0974008
0.0973749
0.0973552
0.0973436
0.0973342
0.0973306
0.0973263
0.0973258
0.0973249
0.097325
0.0973262
0.0973273
0.0974411
0.0973955
0.0973713
0.0973517
0.0973426
0.0973341
0.0973311
0.097327
0.0973258
0.097325
0.097325
0.0973261
0.0927643
0.0980213
0.0927643
0.0980209
0.0927644
0.0980204
0.0927646
0.0980201
0.0927648
0.0980197
0.0977823
0.0976496
0.0975385
0.0974456
0.0974047
0.0973716
0.0973514
0.0973407
0.0973334
0.0973296
0.0973267
0.0973255
0.0973249
0.0973248
0.092765
0.0980196
0.0977824
0.0976509
0.0975397
0.097447
0.0974059
0.0973723
0.0973519
0.0973409
0.0973334
0.0973296
0.0973266
0.0973254
0.0973249
0.0973248
0.0927652
0.0980194
0.0977821
0.097652
0.0975403
0.0974479
0.0974065
0.0973727
0.097352
0.0973409
0.0973336
0.0973297
0.0973267
0.0973254
0.0973248
0.0973247
0.0927654
0.0980196
0.0977821
0.0976532
0.0975416
0.0974496
0.0974078
0.0973735
0.0973527
0.0973413
0.0973336
0.0973296
0.0973265
0.0973253
0.0973248
0.0973247
0.0973257
0.0973267
0.0927657
0.0980198
0.0977811
0.0976541
0.0975412
0.0974503
0.0974076
0.0973736
0.0973526
0.0973413
0.0973339
0.0973297
0.0973267
0.0973254
0.0973248
0.0973246
0.0973255
0.0973267
0.0927659
0.0980205
0.0977803
0.0976548
0.0975406
0.0974505
0.0974074
0.097374
0.0973531
0.097342
0.0973341
0.0973297
0.0973265
0.0973252
0.0973247
0.0973246
0.0973256
0.0973266
0.0927662
0.0980211
0.0977785
0.0976553
0.097539
0.0974502
0.0974062
0.097374
0.0973532
0.0973424
0.0973345
0.0973299
0.0973269
0.0973253
0.0973247
0.0973246
0.0973255
0.097327
0.0927665
0.0980227
0.0977768
0.0976558
0.0975367
0.0974495
0.097405
0.0973745
0.0973537
0.097343
0.0973345
0.0973297
0.0973266
0.0973252
0.0973247
0.0973246
0.0973255
0.0973266
0.0927668
0.0980238
0.0977747
0.0976566
0.0975348
0.0974497
0.097404
0.0973748
0.097354
0.0973438
0.0973355
0.0973302
0.0973273
0.0973253
0.0973247
0.0973246
0.0973255
0.0973272
0.0974491
0.0974025
0.0973751
0.0973543
0.0973444
0.0973352
0.0973296
0.0973268
0.0973253
0.0973247
0.0973246
0.0973255
0.0927841
0.0983077
0.0927842
0.0983074
0.0927842
0.0983071
0.0927844
0.098307
0.0927845
0.098307
0.0980583
0.0977551
0.0976035
0.0974694
0.09741
0.0973744
0.09735
0.0973405
0.0973319
0.0973292
0.0973258
0.0973251
0.0973243
0.0973244
0.0927847
0.098307
0.0980582
0.097756
0.0976039
0.09747
0.0974105
0.0973748
0.0973503
0.0973408
0.0973321
0.0973292
0.0973259
0.097325
0.0973243
0.0973244
0.0927849
0.0983073
0.098058
0.0977571
0.0976044
0.0974709
0.097411
0.0973751
0.0973504
0.0973408
0.0973319
0.0973291
0.0973258
0.097325
0.0973242
0.0973244
0.0927851
0.0983075
0.0980575
0.0977578
0.0976043
0.097471
0.0974114
0.0973754
0.0973507
0.0973413
0.0973323
0.0973293
0.0973258
0.097325
0.0973242
0.0973243
0.097325
0.0973262
0.0927853
0.0983083
0.0980567
0.0977589
0.0976042
0.0974719
0.0974115
0.0973757
0.0973507
0.0973412
0.097332
0.0973291
0.0973257
0.0973249
0.0973242
0.0973244
0.097325
0.0973263
0.0927855
0.0983092
0.0980553
0.0977594
0.0976031
0.0974716
0.0974109
0.0973757
0.0973509
0.0973416
0.0973323
0.0973293
0.0973258
0.097325
0.0973242
0.0973243
0.0973249
0.0973261
0.0927857
0.0983105
0.0980538
0.0977607
0.0976025
0.0974727
0.0974109
0.0973763
0.0973512
0.0973419
0.0973322
0.0973292
0.0973257
0.0973249
0.0973242
0.0973244
0.097325
0.0973263
0.0927859
0.098312
0.0980514
0.097761
0.0976001
0.0974718
0.0974092
0.0973759
0.0973511
0.0973421
0.0973323
0.0973293
0.0973258
0.0973249
0.0973242
0.0973243
0.097325
0.0973262
0.0927862
0.0983138
0.0980491
0.0977624
0.0975988
0.0974727
0.0974093
0.0973771
0.0973518
0.0973427
0.0973324
0.0973293
0.0973257
0.0973249
0.0973243
0.0973244
0.097325
0.0973263
0.097472
0.0974079
0.0973769
0.0973512
0.0973427
0.0973322
0.0973293
0.0973259
0.0973249
0.0973243
0.0973244
0.097325
0.0927985
0.0986161
0.0927986
0.0986157
0.0927987
0.0986153
0.0927988
0.0986152
0.092799
0.0986151
0.0982068
0.097809
0.097657
0.0975128
0.0974284
0.0973874
0.0973549
0.0973438
0.0973329
0.0973292
0.0973256
0.0973245
0.0973238
0.0973238
0.0927991
0.0986153
0.0982068
0.0978101
0.0976574
0.0975134
0.0974287
0.0973877
0.0973551
0.097344
0.0973329
0.0973292
0.0973256
0.0973245
0.0973238
0.0973238
0.0927993
0.0986155
0.0982067
0.0978112
0.0976578
0.097514
0.0974289
0.0973879
0.0973551
0.097344
0.097333
0.0973292
0.0973256
0.0973245
0.0973238
0.0973238
0.0927995
0.0986159
0.0982063
0.0978124
0.0976581
0.0975147
0.0974292
0.0973882
0.0973554
0.0973442
0.097333
0.0973291
0.0973255
0.0973244
0.0973238
0.0973238
0.0973246
0.0973258
0.0927998
0.0986166
0.0982055
0.0978136
0.0976579
0.0975152
0.0974291
0.0973885
0.0973554
0.0973443
0.097333
0.0973291
0.0973255
0.0973244
0.0973238
0.0973238
0.0973246
0.0973258
0.0928
0.0986176
0.0982043
0.0978147
0.0976573
0.0975156
0.097429
0.0973889
0.0973558
0.0973446
0.097333
0.0973291
0.0973255
0.0973244
0.0973238
0.0973238
0.0973246
0.0973257
0.0928003
0.0986188
0.0982026
0.097816
0.0976566
0.0975162
0.0974287
0.0973894
0.097356
0.0973448
0.0973331
0.0973291
0.0973256
0.0973244
0.0973238
0.0973238
0.0973246
0.0973258
0.0928005
0.0986206
0.0982004
0.0978172
0.0976552
0.0975162
0.0974282
0.0973901
0.0973563
0.0973452
0.0973331
0.0973291
0.0973256
0.0973244
0.0973239
0.0973238
0.0973246
0.0973257
0.0928009
0.0986224
0.0981982
0.097819
0.0976542
0.097517
0.0974281
0.0973911
0.0973567
0.0973455
0.0973332
0.0973291
0.0973256
0.0973244
0.0973239
0.0973239
0.0973246
0.0973258
0.0975174
0.0974278
0.0973918
0.0973569
0.0973458
0.0973332
0.097329
0.0973256
0.0973245
0.097324
0.0973239
0.0973246
0.0929292
0.100895
0.0929293
0.100895
0.0929294
0.100895
0.0929295
0.100895
0.0929296
0.100896
0.0999617
0.0982147
0.0977061
0.0975378
0.0974116
0.0973775
0.0973467
0.0973374
0.09733
0.0973263
0.0973245
0.0973233
0.0973229
0.0973231
0.0929298
0.100897
0.0999618
0.0982156
0.0977063
0.0975381
0.0974117
0.0973776
0.0973468
0.0973375
0.09733
0.0973263
0.0973245
0.0973233
0.0973229
0.0973231
0.0929299
0.100897
0.0999617
0.0982167
0.0977065
0.0975385
0.0974118
0.0973777
0.0973468
0.0973375
0.09733
0.0973263
0.0973244
0.0973233
0.097323
0.0973231
0.0929301
0.100898
0.0999613
0.0982178
0.0977064
0.0975389
0.097412
0.097378
0.0973469
0.0973376
0.09733
0.0973263
0.0973244
0.0973233
0.097323
0.0973231
0.0973232
0.0973249
0.0929302
0.100899
0.0999605
0.098219
0.0977063
0.0975393
0.097412
0.0973782
0.097347
0.0973377
0.0973299
0.0973263
0.0973244
0.0973233
0.097323
0.0973231
0.0973232
0.0973249
0.0929304
0.100901
0.0999593
0.0982202
0.0977058
0.0975396
0.0974119
0.0973786
0.0973471
0.0973378
0.0973299
0.0973263
0.0973244
0.0973233
0.097323
0.0973231
0.0973233
0.0973249
0.0929306
0.100902
0.0999576
0.0982217
0.0977053
0.09754
0.0974117
0.097379
0.0973473
0.0973379
0.0973299
0.0973263
0.0973244
0.0973233
0.0973231
0.0973232
0.0973233
0.0973249
0.0929308
0.100904
0.0999553
0.098223
0.0977041
0.09754
0.0974113
0.0973794
0.0973474
0.097338
0.0973298
0.0973263
0.0973245
0.0973234
0.0973231
0.0973232
0.0973233
0.0973249
0.0929311
0.100906
0.0999529
0.0982247
0.0977031
0.0975403
0.0974111
0.0973802
0.0973477
0.0973382
0.0973298
0.0973263
0.0973245
0.0973234
0.0973232
0.0973233
0.0973234
0.097325
0.0975405
0.0974108
0.0973807
0.0973477
0.0973382
0.0973298
0.0973263
0.0973245
0.0973235
0.0973233
0.0973234
0.0973235
0.0930338
0.10129
0.0930338
0.10129
0.100292
0.0996477
0.098169
0.097802
0.0975282
0.0930339
0.101291
0.100292
0.099648
0.0981694
0.0978022
0.0975284
0.0974438
0.0973846
0.0973619
0.0930341
0.101291
0.100293
0.0996487
0.0981698
0.0978025
0.0975286
0.0974439
0.0973846
0.0973619
0.0973467
0.0973397
0.0973362
0.0973344
0.0930342
0.101292
0.100293
0.0996497
0.0981703
0.0978031
0.0975288
0.0974441
0.0973847
0.0973618
0.0973466
0.0973396
0.0973361
0.0973344
0.0973338
0.0973341
0.0930344
0.101293
0.100294
0.099651
0.0981707
0.0978038
0.0975291
0.0974443
0.0973848
0.0973618
0.0973465
0.0973396
0.0973361
0.0973344
0.0973338
0.0973342
0.0973339
0.0930345
0.101294
0.100295
0.0996523
0.0981712
0.0978046
0.0975294
0.0974446
0.0973849
0.0973618
0.0973464
0.0973395
0.0973361
0.0973344
0.0973338
0.0973342
0.097334
0.0973374
0.0930347
0.101295
0.100295
0.0996537
0.0981717
0.0978057
0.0975299
0.097445
0.0973851
0.0973617
0.0973463
0.0973394
0.0973361
0.0973344
0.0973338
0.0973342
0.097334
0.0973374
0.0930349
0.101297
0.100295
0.0996553
0.0981721
0.0978068
0.0975303
0.0974455
0.0973853
0.0973617
0.0973462
0.0973393
0.0973361
0.0973344
0.0973339
0.0973342
0.097334
0.0973373
0.097338
0.0930351
0.101298
0.100296
0.0996569
0.0981723
0.097808
0.0975309
0.097446
0.0973855
0.0973617
0.0973461
0.0973393
0.0973361
0.0973344
0.0973339
0.0973342
0.0973341
0.0973373
0.097338
0.0930353
0.1013
0.100296
0.0996589
0.0981725
0.0978095
0.0975315
0.0974466
0.0973856
0.0973616
0.0973459
0.0973392
0.0973361
0.0973344
0.097334
0.0973343
0.0973341
0.0973372
0.0973379
0.0930355
0.101302
0.100296
0.0996609
0.0981724
0.0978112
0.0975324
0.0974471
0.0973856
0.0973615
0.0973457
0.0973391
0.0973361
0.0973345
0.0973341
0.0973344
0.0973342
0.0973372
0.0973379
0.0930358
0.0973855
0.0973613
0.0973455
0.097339
0.0973361
0.0973345
0.0973342
0.0973344
0.0973343
0.0973371
0.0973611
0.0973453
0.0973389
0.0973361
0.0973346
0.0973343
0.0973345
0.0973343
0.093716
0.103217
0.093716
0.103216
0.108869
0.10147
0.102849
0.0998633
0.100419
0.093716
0.103216
0.108869
0.101469
0.102849
0.0998621
0.100417
0.0985998
0.0991688
0.0982802
0.0937161
0.103216
0.108869
0.101469
0.102848
0.0998611
0.100416
0.0985978
0.0991651
0.0982797
0.0985188
0.0982659
0.0983481
0.0982856
0.0937161
0.103215
0.108869
0.101468
0.102846
0.0998591
0.100413
0.0985949
0.0991601
0.0982787
0.0985162
0.098266
0.0983471
0.0982858
0.0983115
0.0982881
0.0937162
0.103215
0.108868
0.101467
0.102845
0.0998569
0.10041
0.0985914
0.0991537
0.0982776
0.0985129
0.0982663
0.0983458
0.0982862
0.098311
0.0982885
0.0983177
0.0937163
0.103214
0.108869
0.101466
0.102843
0.0998547
0.100406
0.0985875
0.0991466
0.0982765
0.0985093
0.0982667
0.0983445
0.0982868
0.0983106
0.098289
0.0983171
0.0982666
0.0937164
0.103214
0.108869
0.101465
0.102842
0.0998524
0.100402
0.0985833
0.0991384
0.0982754
0.098505
0.0982674
0.0983431
0.0982875
0.0983101
0.0982896
0.0983165
0.0982675
0.0937165
0.103214
0.10887
0.101465
0.10284
0.09985
0.100398
0.0985789
0.0991296
0.0982743
0.0985007
0.0982682
0.0983418
0.0982883
0.0983097
0.0982905
0.0983158
0.0982688
0.0983732
0.0937167
0.103213
0.10887
0.101464
0.102839
0.0998475
0.100394
0.0985741
0.0991199
0.0982734
0.0984959
0.0982692
0.0983404
0.0982891
0.0983094
0.0982912
0.0983152
0.0982698
0.0983713
0.0937169
0.103213
0.108872
0.101464
0.102837
0.0998448
0.100389
0.0985682
0.0991088
0.0982724
0.0984909
0.0982702
0.0983389
0.09829
0.0983089
0.098292
0.0983145
0.0982712
0.098369
0.0937171
0.103213
0.108873
0.101463
0.102835
0.0998421
0.100383
0.0985615
0.0990971
0.0982716
0.0984858
0.0982712
0.0983376
0.0982908
0.0983088
0.0982926
0.0983141
0.0982723
0.098367
0.0937173
0.0990831
0.0982706
0.09848
0.0982724
0.0983361
0.0982918
0.0983086
0.0982935
0.0983136
0.0982738
0.0982698
0.0984748
0.0982735
0.0983351
0.0982927
0.0983086
0.0982941
0.0983134
0.103135
0.104762
0.101368
0.100955
0.0928103
0.0969653
0.08737
0.102015
0.104243
0.100191
0.100656
0.101602
0.073597
0.0809229
0.101466
0.102128
0.0914379
0.106607
0.105834
0.105757
0.102118
0.0949906
0.0985593
0.063522
0.102656
0.103308
0.101344
0.0638237
0.0968779
0.0979484
0.0628006
0.105113
0.107331
0.104787
0.0633272
0.102127
0.0918993
0.098084
0.102873
0.102288
0.0853732
0.0982073
0.0993952
0.103787
0.0995762
0.0799472
0.091101
0.0998187
0.102338
0.0949376
0.0850365
0.101383
0.0738751
0.102442
0.099144
0.100518
0.0955342
0.093978
0.0997737
0.0883003
0.095914
0.0953449
0.0750151
0.0719234
0.0865825
0.0997389
0.0705407
0.0781109
0.101513
0.0682348
0.0990791
0.0724925
0.0878552
0.0958916
0.0686204
0.075734
0.0960811
0.0986758
0.0976068
0.0727102
0.101406
0.101928
0.0996588
0.100134
0.0954015
0.098411