/*--------------------------------*- C++ -*----------------------------------*\
  =========                 |
  \\      /  F ield         | OpenFOAM: The Open Source CFD Toolbox
   \\    /   O peration     | Website:  https://openfoam.org
    \\  /    A nd           | Version:  10
     \\/     M anipulation  |
\*---------------------------------------------------------------------------*/
FoamFile
{
    format      ascii;
    class       volScalarField;
    location    "0.05";
    object      k_0;
}
// * * * * * * * * * * * * * * * * * * * * * * * * * * * * * * * * * * * * * //

dimensions      [0 2 -2 0 0 0 0];

internalField   nonuniform List<scalar> 
114955
(
0.0974189
0.0973934
0.0973826
0.0973852
0.0973804
0.097383
0.0973777
0.0974058
0.0973946
0.0973834
0.0973824
0.0973838
0.0973806
0.0973805
0.0974227
0.0973972
0.0973805
0.097384
0.0973778
0.0973789
0.0973767
0.0974056
0.0973971
0.0973829
0.0974087
0.0974698
0.0973842
0.0973784
0.0976129
0.0975347
0.0975237
0.0976177
0.0974385
0.0974134
0.0974896
0.0974353
0.0974058
0.0973884
0.0974529
0.0973954
0.0973837
0.0977529
0.09787
0.0974804
0.0974313
0.0974031
0.0973903
0.0973892
0.0974076
0.0974089
0.0973873
0.0975526
0.0974485
0.0974345
0.0974927
0.0974386
0.0973979
0.0974159
0.0975242
0.0973931
0.0974008
0.0975509
0.097418
0.0974419
0.097635
0.097773
0.0975971
0.0975307
0.097413
0.0974859
0.097578
0.0979431
0.0977956
0.0973954
0.0974087
0.0974361
0.0975281
0.0978918
0.0977549
0.0973971
0.0973929
0.0974117
0.0975247
0.0975982
0.0976522
0.0977445
0.0977786
0.0975622
0.0974186
0.097431
0.0973988
0.0973851
0.0973789
0.0973764
0.0973761
0.0977236
0.0975929
0.097607
0.0974142
0.0974545
0.0975572
0.0974054
0.0973846
0.0973811
0.0981092
0.0977055
0.0976014
0.0976104
0.0976646
0.0977733
0.0979042
0.0977427
0.097436
0.0973925
0.0980134
0.0980452
0.0978359
0.0978701
0.0974463
0.0974437
0.0977302
0.0978427
0.0976273
0.0974194
0.0978478
0.0980173
0.0981773
0.0974463
0.0974409
0.0974241
0.0975183
0.0978212
0.0975229
0.097593
0.0977291
0.0980094
0.09782
0.0978641
0.0974713
0.097462
0.0977147
0.0979191
0.0977617
0.0975479
0.0975754
0.0975297
0.0975009
0.0976497
0.0978872
0.0975776
0.0987959
0.103061
0.100793
0.10023
0.0975446
0.0975487
0.0975851
0.0978853
0.0979541
0.0984623
0.101866
0.101755
0.0984186
0.0984179
0.0974821
0.0974633
0.0975675
0.0979194
0.0988354
0.101878
0.10128
0.0981526
0.0975882
0.0974438
0.0974249
0.0976446
0.0977527
0.0984102
0.101967
0.101305
0.0985145
0.0990456
0.0981681
0.0977172
0.0977661
0.0974516
0.0975704
0.0975666
0.0974013
0.0973883
0.0973807
0.0992095
0.0989982
0.0978586
0.0978592
0.0980486
0.0979461
0.0981265
0.0982107
0.0978445
0.0974573
0.0974022
0.0987248
0.0980795
0.0980724
0.098359
0.103261
0.101164
0.103217
0.10399
0.0993239
0.0978951
0.097481
0.0992203
0.0995142
0.0992751
0.102842
0.101307
0.0987663
0.0982536
0.10288
0.10251
0.0989392
0.0978256
0.0985227
0.103939
0.103548
0.0982802
0.0980301
0.0976648
0.0997677
0.101238
0.0981473
0.0976013
0.097986
0.0994228
0.104083
0.101486
0.0989753
0.0975595
0.0979575
0.1015
0.100167
0.100893
0.0976464
0.0978656
0.0981421
0.103634
0.102184
0.0980855
0.0978942
0.0992696
0.0990226
0.0990769
0.0975844
0.0975285
0.097644
0.0989112
0.103071
0.100108
0.0991026
0.0995949
0.10136
0.0983017
0.0976069
0.0978027
0.0990058
0.101076
0.101839
0.0999152
0.102446
0.0979693
0.0976609
0.0974298
0.0976368
0.0985339
0.100485
0.101385
0.0988978
0.101218
0.0975499
0.0977815
0.0975847
0.0974352
0.0974208
0.0973915
0.0973837
0.0973818
0.0973783
0.0973775
0.0991625
0.0982116
0.0977033
0.0976694
0.0974526
0.0975781
0.0974752
0.0973938
0.0973894
0.0973792
0.102126
0.10362
0.102524
0.100902
0.102974
0.0983997
0.0981219
0.0977579
0.0975835
0.0974144
0.0973928
0.100664
0.10314
0.103041
0.10082
0.103085
0.101755
0.103104
0.0987097
0.0978403
0.0976259
0.0974224
0.100656
0.102501
0.101435
0.0996268
0.100073
0.0996925
0.100483
0.103716
0.102347
0.0985643
0.0976525
0.100336
0.101952
0.101024
0.101514
0.0994804
0.0997931
0.103025
0.105233
0.107572
0.101533
0.0987441
0.101025
0.102697
0.102835
0.104396
0.0987506
0.0977626
0.0978701
0.0995372
0.100353
0.103751
0.102287
0.0984323
0.103004
0.103254
0.104835
0.0979655
0.0976218
0.0981103
0.0996238
0.099741
0.100307
0.0979089
0.0994318
0.102782
0.102179
0.105237
0.0978479
0.0983133
0.100926
0.100858
0.0988428
0.0975785
0.0976951
0.0980932
0.103049
0.103563
0.10174
0.10273
0.105073
0.102491
0.103233
0.0975649
0.0978502
0.098933
0.100991
0.10228
0.103156
0.10243
0.101631
0.101512
0.0975956
0.0981297
0.0989777
0.101328
0.0992943
0.0991395
0.101014
0.0980215
0.0979936
0.0976827
0.0975447
0.0974755
0.0974209
0.0974608
0.0974117
0.0973892
0.0973806
0.0973786
0.0993495
0.0989687
0.0978469
0.09781
0.098019
0.097641
0.0978436
0.0975806
0.0974353
0.097391
0.0973824
0.10209
0.10284
0.103507
0.101608
0.103692
0.101825
0.103374
0.099152
0.0976395
0.0974441
0.0974024
0.0998497
0.104829
0.11334
0.115916
0.0997097
0.100748
0.106383
0.102425
0.0984036
0.0975707
0.0975515
0.0983518
0.101468
0.107729
0.105388
0.107645
0.108266
0.106774
0.103257
0.10074
0.0978929
0.0978863
0.0994311
0.103991
0.109226
0.104596
0.104349
0.107649
0.105539
0.102377
0.102427
0.100973
0.098146
0.10106
0.102518
0.102892
0.107386
0.101929
0.103803
0.108481
0.11277
0.101689
0.100732
0.0998547
0.101985
0.102081
0.105645
0.103836
0.103979
0.104614
0.107087
0.105529
0.100473
0.0995769
0.0982096
0.101752
0.104782
0.10266
0.102994
0.1057
0.10427
0.107215
0.117814
0.101391
0.0978155
0.0991252
0.101856
0.102275
0.102156
0.101392
0.100495
0.101949
0.0976302
0.102613
0.102107
0.105057
0.102466
0.102103
0.0932734
0.0664959
0.0983383
0.10014
0.0993687
0.101821
0.0750508
0.0980079
0.0980205
0.0977153
0.0975629
0.0975018
0.0974209
0.0974433
0.0974061
0.0973895
0.0973811
0.0973796
0.0982386
0.0993259
0.0989501
0.0978303
0.0977322
0.0976449
0.0977947
0.0979791
0.0976297
0.0974474
0.0974035
0.0973855
0.0985803
0.102206
0.101388
0.101734
0.102303
0.100395
0.105609
0.10332
0.0989883
0.0976549
0.0974593
0.0974235
0.0977239
0.100028
0.102813
0.109493
0.10743
0.122148
0.099972
0.10807
0.102194
0.0982749
0.0976008
0.0975609
0.0976528
0.0986229
0.0986889
0.0993252
0.103832
0.108775
0.112059
0.10031
0.105195
0.100759
0.0981205
0.0981278
0.0995424
0.0985184
0.107435
0.107707
0.0735283
0.100434
0.100989
0.103221
0.106744
0.100757
0.0985706
0.101196
0.104279
0.0997363
0.111276
0.0969884
0.0522401
0.0954725
0.109932
0.100092
0.104842
0.0997402
0.101836
0.104158
0.102431
0.104673
0.0938489
0.0933195
0.101139
0.102869
0.100316
0.0982008
0.101947
0.107972
0.101496
0.102437
0.100303
0.0654067
0.089981
0.104568
0.0978316
0.0991914
0.101734
0.104368
0.101157
0.103266
0.0945625
0.0722666
0.102018
0.10772
0.10311
0.0981456
0.0878839
0.0979955
0.0989207
0.100343
0.0976281
0.0975521
0.0976981
0.0975659
0.0974947
0.0975701
0.0974164
0.0973846
0.0973784
0.0973773
0.0973771
0.0977579
0.0978032
0.0985167
0.0992168
0.0981167
0.0977698
0.0980479
0.0981564
0.0976986
0.0974608
0.0973961
0.0973809
0.0973778
0.0979198
0.0988949
0.102187
0.103829
0.101348
0.10083
0.104997
0.104521
0.0990922
0.0976978
0.0974488
0.0973976
0.0973839
0.0979219
0.0986427
0.100688
0.103084
0.103762
0.0997777
0.102463
0.10601
0.102866
0.0985129
0.09759
0.0974154
0.0973974
0.097823
0.0982375
0.100674
0.104113
0.114199
0.102751
0.113746
0.100335
0.105691
0.102613
0.0982347
0.0976099
0.0974711
0.0978953
0.0984843
0.100457
0.103803
0.0999206
0.103468
0.102266
0.110834
0.100075
0.108189
0.10229
0.0981961
0.0980283
0.0978681
0.0986611
0.10112
0.102589
0.104181
0.104418
0.101602
0.102276
0.107046
0.103831
0.106205
0.100925
0.0979027
0.0977398
0.0977009
0.0981099
0.0985129
0.103042
0.112339
0.10743
0.101386
0.102826
0.107903
0.103257
0.101447
0.0994085
0.097742
0.0977444
0.0977028
0.0978877
0.0993417
0.102733
0.104719
0.102006
0.100917
0.101402
0.109044
0.102453
0.0975769
0.0977333
0.0982027
0.103108
0.109541
0.103368
0.100307
0.100885
0.0966199
0.0995853
0.100654
0.101459
0.0997974
0.0976009
0.0975881
0.0975157
0.0974727
0.097437
0.0974019
0.0973899
0.097382
0.0973803
0.097378
0.0973781
0.0977466
0.0977074
0.0975991
0.0975478
0.0979319
0.0977292
0.0975824
0.0977737
0.0974673
0.0973964
0.0973817
0.0973804
0.097378
0.0977589
0.0977924
0.0984915
0.0993876
0.0983589
0.0979038
0.0985024
0.0986221
0.0977821
0.0974789
0.0974069
0.0973871
0.0973863
0.0978918
0.0984647
0.100745
0.102632
0.101017
0.100579
0.104388
0.104682
0.0985928
0.0975144
0.0974033
0.0974004
0.0973995
0.0978499
0.098201
0.100362
0.101799
0.100882
0.101187
0.0988765
0.102737
0.103467
0.0984128
0.0975389
0.0974112
0.0974155
0.0978818
0.0984584
0.100491
0.102424
0.102088
0.101321
0.0984259
0.0987132
0.102915
0.103136
0.0982585
0.0975666
0.0974434
0.0977443
0.0976957
0.0981918
0.0987294
0.103321
0.108193
0.0985797
0.0984428
0.0985016
0.102917
0.102269
0.0981574
0.0977591
0.0977553
0.0977521
0.0976634
0.0977902
0.0995159
0.103318
0.102885
0.0996065
0.0981006
0.0984198
0.0990884
0.10001
0.099058
0.097716
0.0976466
0.0975429
0.0975721
0.0978064
0.0982408
0.103562
0.105535
0.0992188
0.0983681
0.099254
0.102541
0.0975502
0.0975303
0.0976048
0.0986192
0.101539
0.100231
0.0985368
0.101468
0.102561
0.0991133
0.0995432
0.100129
0.100928
0.102691
0.0975449
0.0974849
0.0974845
0.0974599
0.0974224
0.0974226
0.0973933
0.097384
0.0973793
0.0973778
0.0973771
0.0977305
0.0976686
0.0976101
0.0975951
0.0975086
0.0974681
0.0974411
0.0973996
0.0973923
0.097386
0.0973825
0.0973784
0.0973774
0.0977431
0.0977077
0.0976027
0.097548
0.097935
0.0977298
0.0975896
0.0977583
0.0974798
0.0974014
0.0973855
0.0973813
0.0973785
0.092911
0.0979349
0.097734
0.0977234
0.0980599
0.0983193
0.0980117
0.0977874
0.0980335
0.097973
0.0975499
0.0974466
0.0974065
0.0973888
0.0973838
0.0929114
0.0979354
0.0977334
0.0976961
0.0978831
0.0984053
0.097831
0.0976704
0.0976103
0.097696
0.0975721
0.0974853
0.0974138
0.0974031
0.0974013
0.0929116
0.097934
0.0977297
0.0977158
0.0980537
0.0983316
0.0979293
0.09776
0.0975904
0.0974519
0.0978493
0.0977287
0.097509
0.0974342
0.0974245
0.0977433
0.0977165
0.097661
0.0977329
0.0982166
0.0981788
0.0975402
0.0974518
0.0974374
0.0977116
0.0977272
0.097523
0.0974857
0.0977209
0.0976642
0.0975843
0.0976284
0.0978579
0.0978923
0.0978601
0.0975077
0.0974649
0.0975665
0.0977412
0.0976842
0.0974945
0.0977244
0.0976689
0.0975574
0.0975301
0.0974962
0.0975127
0.0976491
0.0978421
0.0976188
0.0983834
0.102865
0.10006
0.0983333
0.0975177
0.0975227
0.0975984
0.0978206
0.0980084
0.0983869
0.101743
0.100462
0.0984952
0.0987713
0.0981931
0.100643
0.100752
0.0984078
0.0975405
0.0974978
0.0974619
0.0974352
0.0974101
0.0973944
0.097383
0.0973808
0.0973785
0.0973777
0.0973775
0.0973776
0.0977275
0.0976533
0.0975327
0.0974774
0.097485
0.0974593
0.0974201
0.0974207
0.0973945
0.0973857
0.0973797
0.0973781
0.0973768
0.0973775
0.0929077
0.0979377
0.0977314
0.0976674
0.0975795
0.0975718
0.0975263
0.0974779
0.0974385
0.0974014
0.0973884
0.0973819
0.0973801
0.0973776
0.0973781
0.0929083
0.0979443
0.0977391
0.0976924
0.0975292
0.0974869
0.0977282
0.0975831
0.0974865
0.0975367
0.0974333
0.0973939
0.0973824
0.0973798
0.0973771
0.0929088
0.0979419
0.0977358
0.0976825
0.0975353
0.0974807
0.097733
0.0976297
0.0974836
0.0974139
0.0974145
0.0973936
0.097384
0.0973783
0.097379
0.0929089
0.0979451
0.0977365
0.0976923
0.0975244
0.0974701
0.0977763
0.0976365
0.0974558
0.0974094
0.0973989
0.0974592
0.0974045
0.0973853
0.0973769
0.0929091
0.0979391
0.0977257
0.097664
0.0975677
0.0976324
0.0977485
0.0975652
0.0974592
0.0974131
0.0973979
0.0973826
0.0974177
0.0973922
0.0973862
0.0977243
0.0976624
0.0975278
0.0974837
0.0974511
0.0974657
0.0975015
0.0974461
0.0974074
0.0974406
0.0974843
0.0973884
0.0973891
0.0977178
0.0976528
0.0975329
0.0975185
0.0975083
0.0975367
0.0975609
0.0974169
0.0974321
0.0975382
0.0976397
0.0975759
0.0974667
0.0974844
0.0974384
0.0974172
0.0974041
0.0974615
0.0976507
0.0977132
0.0977554
0.0973969
0.0974048
0.0975175
0.097756
0.097696
0.0973971
0.0975324
0.0974804
0.0974494
0.0974276
0.0974062
0.0973985
0.0973876
0.0973829
0.0973794
0.097378
0.0973773
0.0973772
0.0929071
0.0979378
0.0977278
0.0976514
0.097546
0.0974996
0.097458
0.0974315
0.0974087
0.0973941
0.0973849
0.097382
0.0973793
0.0973778
0.0973773
0.0973772
0.0929076
0.0979384
0.0977284
0.0976544
0.0975447
0.0974922
0.0974801
0.0974499
0.09742
0.0974153
0.0973929
0.0973848
0.0973796
0.097378
0.0973771
0.0973773
0.0929082
0.0979387
0.0977308
0.0976631
0.0975838
0.0975562
0.097492
0.0974514
0.0974188
0.0973973
0.097386
0.097383
0.0973805
0.0973784
0.097378
0.0973777
0.097381
0.0929085
0.0979386
0.0977292
0.0976609
0.0975697
0.0975513
0.0974824
0.097453
0.0974226
0.0974151
0.0973937
0.097386
0.09738
0.0973795
0.0973779
0.0973795
0.0973787
0.0929088
0.0979395
0.097729
0.0976633
0.0975822
0.0975609
0.0974884
0.0974526
0.0974148
0.0973991
0.0973904
0.0973823
0.0973808
0.0973793
0.0973797
0.0973782
0.0973834
0.0929088
0.0979403
0.0977263
0.0976587
0.0975488
0.0975078
0.0974842
0.0974656
0.0974169
0.0974101
0.0973944
0.0973948
0.097385
0.0973828
0.0973783
0.0973829
0.0973789
0.0977229
0.0976553
0.0975418
0.0975057
0.0974783
0.0974533
0.0974182
0.0974076
0.0973862
0.0973815
0.0973811
0.0973817
0.0973778
0.0973782
0.097384
0.0977206
0.0976537
0.0975308
0.0974889
0.097447
0.0974276
0.0974179
0.0974225
0.0973982
0.0974213
0.0974522
0.0973815
0.0973794
0.0973826
0.0973857
0.0974888
0.0974526
0.0974457
0.0974284
0.097427
0.0974067
0.0974298
0.097389
0.0973888
0.0973783
0.0973782
0.0973959
0.092907
0.0979438
0.0929073
0.0979438
0.0977334
0.0976513
0.0975355
0.0974821
0.0974467
0.0974225
0.0974032
0.0973927
0.0973843
0.0973815
0.0973787
0.0973779
0.0973774
0.0973775
0.0929077
0.0979436
0.0977332
0.0976518
0.0975347
0.097479
0.0974507
0.0974266
0.0974056
0.0973975
0.0973878
0.0973834
0.0973796
0.0973781
0.0973772
0.0973772
0.0929081
0.097944
0.0977342
0.0976558
0.0975412
0.0974902
0.0974601
0.097431
0.0974085
0.0973937
0.0973832
0.0973807
0.0973781
0.0973774
0.0973772
0.0973773
0.0929084
0.097944
0.0977332
0.0976557
0.097533
0.0974759
0.0974736
0.0974396
0.0974141
0.0974063
0.0973916
0.0973855
0.0973801
0.0973783
0.0973769
0.0973771
0.0973772
0.0973781
0.0929088
0.0979446
0.0977332
0.097658
0.0975379
0.097487
0.0974801
0.097445
0.0974141
0.0973964
0.0973822
0.0973801
0.0973773
0.0973771
0.0973769
0.0973775
0.09738
0.0973821
0.092909
0.0979452
0.0977317
0.097657
0.0975316
0.0974758
0.0974753
0.0974405
0.0974134
0.0973998
0.097389
0.0973885
0.0973812
0.0973786
0.0973768
0.0973768
0.0973772
0.097378
0.0929092
0.0979461
0.0977311
0.0976593
0.0975416
0.0975008
0.0974835
0.0974427
0.0974151
0.0973975
0.0973856
0.0973817
0.097377
0.0973777
0.0973768
0.0973783
0.0973829
0.0973794
0.0929093
0.0979474
0.0977289
0.0976568
0.0975305
0.09748
0.0974452
0.0974217
0.0974121
0.0973988
0.0973895
0.0973865
0.0973819
0.0973785
0.0973773
0.0973768
0.0973779
0.0973803
0.0977275
0.0976587
0.0975333
0.0974922
0.0974577
0.0974378
0.0974207
0.0973965
0.0973865
0.0973852
0.0973787
0.0973826
0.0973772
0.0973772
0.0973841
0.0973798
0.097481
0.0974387
0.0974184
0.0974019
0.0973933
0.0973934
0.0973895
0.0973844
0.0973791
0.0973774
0.0973768
0.09738
0.0929089
0.0979589
0.0929091
0.0979586
0.0929093
0.0979583
0.0977452
0.0976585
0.0975433
0.0974824
0.0974458
0.0974204
0.0974022
0.0973927
0.0973857
0.0973819
0.0973792
0.0973779
0.0973773
0.0973772
0.0929096
0.0979584
0.0977459
0.0976607
0.0975468
0.0974869
0.097449
0.0974221
0.0974034
0.0973927
0.0973854
0.0973818
0.097379
0.0973777
0.0973773
0.0973772
0.0929099
0.0979582
0.0977457
0.0976618
0.0975477
0.0974875
0.0974514
0.0974242
0.0974043
0.0973941
0.0973864
0.0973821
0.0973791
0.0973778
0.0973771
0.097377
0.0929102
0.0979588
0.0977468
0.0976647
0.0975536
0.0974955
0.0974556
0.0974259
0.0974057
0.0973933
0.0973854
0.0973816
0.0973788
0.0973776
0.0973771
0.097377
0.0973783
0.0973794
0.0929105
0.0979588
0.0977456
0.097665
0.0975519
0.0974956
0.0974548
0.0974264
0.0974055
0.0973941
0.0973866
0.0973825
0.0973793
0.0973778
0.097377
0.0973769
0.0973777
0.0973788
0.0929107
0.0979599
0.0977454
0.0976662
0.0975527
0.0974968
0.0974555
0.0974272
0.097406
0.0973943
0.0973866
0.0973817
0.0973785
0.0973774
0.0973771
0.0973769
0.0973782
0.0973791
0.0929109
0.0979601
0.097743
0.0976652
0.0975474
0.0974914
0.097452
0.0974268
0.0974059
0.097396
0.0973882
0.0973833
0.0973801
0.0973779
0.0973768
0.0973768
0.0973778
0.0973802
0.0929111
0.0979619
0.0977418
0.0976657
0.0975441
0.0974905
0.0974505
0.0974273
0.0974066
0.0973963
0.097387
0.0973812
0.0973789
0.0973775
0.0973771
0.0973768
0.097378
0.0973789
0.0977393
0.0976655
0.0975405
0.0974875
0.0974459
0.0974244
0.0974061
0.0973987
0.0973915
0.0973851
0.0973833
0.0973775
0.0973768
0.0973765
0.0973782
0.0973832
0.0974864
0.0974442
0.0974262
0.0974073
0.0973995
0.0973891
0.097381
0.0973796
0.0973781
0.0973771
0.0973769
0.0973786
0.0929127
0.097999
0.0929129
0.0979987
0.0929131
0.0979985
0.0977887
0.0976854
0.0975651
0.0974897
0.0974497
0.0974209
0.0974018
0.097392
0.0973846
0.0973815
0.0973786
0.0973777
0.097377
0.0973771
0.0929133
0.0979981
0.0977885
0.0976861
0.0975655
0.09749
0.0974509
0.097422
0.0974026
0.097393
0.0973855
0.097382
0.0973788
0.0973777
0.0973769
0.097377
0.0929136
0.0979982
0.0977888
0.0976877
0.0975673
0.0974925
0.0974532
0.097423
0.0974031
0.0973924
0.0973845
0.0973814
0.0973783
0.0973775
0.0973769
0.097377
0.0929138
0.0979979
0.097788
0.0976877
0.0975665
0.0974907
0.0974548
0.0974242
0.0974042
0.0973943
0.0973862
0.0973824
0.0973788
0.0973777
0.0973768
0.0973769
0.0973775
0.0973785
0.0929141
0.0979984
0.0977878
0.0976894
0.0975677
0.0974939
0.0974563
0.0974253
0.0974042
0.0973931
0.0973845
0.0973814
0.097378
0.0973773
0.0973768
0.097377
0.097378
0.0973793
0.0929143
0.0979989
0.0977865
0.0976892
0.0975655
0.0974914
0.0974547
0.0974244
0.0974044
0.0973941
0.097386
0.0973827
0.0973789
0.0973777
0.0973768
0.0973767
0.0973774
0.0973783
0.0929145
0.0980001
0.0977858
0.0976912
0.0975668
0.097496
0.0974564
0.097426
0.0974053
0.0973941
0.0973853
0.0973818
0.0973779
0.0973774
0.0973767
0.097377
0.0973781
0.097379
0.0929148
0.0980013
0.0977837
0.0976905
0.0975624
0.0974917
0.0974494
0.0974222
0.097404
0.0973941
0.0973858
0.0973825
0.0973787
0.0973776
0.0973768
0.0973768
0.0973776
0.0973787
0.0929151
0.0980028
0.0977823
0.0976923
0.0975622
0.0974948
0.0974513
0.0974258
0.0974063
0.0973949
0.0973858
0.0973823
0.0973781
0.0973776
0.0973767
0.0973768
0.097378
0.097379
0.0974917
0.0974463
0.0974223
0.0974029
0.097394
0.0973856
0.0973827
0.0973787
0.0973776
0.0973768
0.0973768
0.0973779
0.0929189
0.0980725
0.092919
0.0980721
0.0929191
0.0980717
0.0929192
0.0980714
0.0929194
0.098071
0.0978334
0.0977004
0.0975885
0.0974961
0.0974552
0.0974225
0.0974026
0.0973921
0.0973849
0.0973813
0.0973785
0.0973773
0.0973767
0.0973766
0.0929196
0.0980709
0.0978334
0.0977016
0.0975897
0.0974974
0.0974564
0.0974232
0.097403
0.0973923
0.097385
0.0973813
0.0973784
0.0973772
0.0973767
0.0973766
0.0929198
0.0980708
0.0978331
0.0977027
0.0975903
0.0974983
0.097457
0.0974236
0.0974031
0.0973923
0.0973852
0.0973814
0.0973784
0.0973772
0.0973767
0.0973766
0.09292
0.098071
0.0978331
0.0977039
0.0975915
0.0975
0.0974582
0.0974243
0.0974038
0.0973927
0.0973852
0.0973813
0.0973783
0.0973771
0.0973766
0.0973766
0.0973775
0.0973785
0.0929203
0.0980712
0.0978322
0.0977047
0.0975911
0.0975006
0.0974579
0.0974244
0.0974037
0.0973927
0.0973854
0.0973814
0.0973785
0.0973772
0.0973766
0.0973765
0.0973774
0.0973785
0.0929205
0.0980719
0.0978313
0.0977054
0.0975905
0.0975008
0.0974578
0.0974248
0.0974042
0.0973934
0.0973856
0.0973814
0.0973783
0.0973771
0.0973766
0.0973765
0.0973774
0.0973784
0.0929208
0.0980725
0.0978296
0.097706
0.0975889
0.0975006
0.0974566
0.0974249
0.0974043
0.0973938
0.097386
0.0973816
0.0973787
0.0973772
0.0973766
0.0973765
0.0973773
0.0973787
0.0929211
0.098074
0.0978279
0.0977065
0.0975867
0.0974999
0.0974554
0.0974253
0.0974047
0.0973944
0.097386
0.0973814
0.0973784
0.097377
0.0973766
0.0973765
0.0973773
0.0973784
0.0929214
0.0980751
0.0978258
0.0977073
0.0975849
0.0975001
0.0974544
0.0974256
0.0974051
0.0973952
0.097387
0.0973819
0.097379
0.0973771
0.0973766
0.0973765
0.0973773
0.097379
0.0974995
0.097453
0.097426
0.0974053
0.0973957
0.0973867
0.0973813
0.0973786
0.0973771
0.0973766
0.0973765
0.0973773
0.0929381
0.098352
0.0929381
0.0983516
0.0929382
0.0983514
0.0929383
0.0983513
0.0929385
0.0983513
0.0981033
0.0978027
0.0976517
0.0975191
0.0974603
0.0974252
0.0974012
0.0973919
0.0973836
0.0973809
0.0973777
0.0973769
0.0973762
0.0973763
0.0929387
0.0983514
0.0981032
0.0978036
0.0976521
0.0975197
0.0974607
0.0974255
0.0974015
0.0973922
0.0973837
0.097381
0.0973777
0.0973769
0.0973761
0.0973763
0.0929388
0.0983516
0.0981031
0.0978047
0.0976525
0.0975205
0.0974612
0.0974258
0.0974015
0.0973922
0.0973836
0.0973809
0.0973776
0.0973769
0.0973761
0.0973763
0.092939
0.0983519
0.0981025
0.0978053
0.0976524
0.0975206
0.0974615
0.0974261
0.0974019
0.0973926
0.0973839
0.097381
0.0973777
0.0973769
0.0973761
0.0973762
0.0973768
0.097378
0.0929392
0.0983527
0.0981017
0.0978064
0.0976523
0.0975215
0.0974616
0.0974264
0.0974019
0.0973926
0.0973837
0.0973809
0.0973776
0.0973768
0.0973761
0.0973763
0.0973769
0.0973781
0.0929394
0.0983535
0.0981004
0.0978069
0.0976512
0.0975212
0.0974611
0.0974264
0.0974021
0.097393
0.0973839
0.097381
0.0973777
0.0973768
0.0973761
0.0973762
0.0973768
0.097378
0.0929396
0.0983548
0.0980989
0.0978082
0.0976506
0.0975222
0.0974611
0.097427
0.0974024
0.0973933
0.0973839
0.097381
0.0973775
0.0973768
0.0973761
0.0973763
0.0973769
0.0973781
0.0929398
0.0983563
0.0980965
0.0978085
0.0976482
0.0975214
0.0974594
0.0974267
0.0974023
0.0973935
0.0973839
0.097381
0.0973777
0.0973768
0.0973761
0.0973762
0.0973768
0.0973781
0.0929401
0.0983581
0.0980943
0.0978099
0.097647
0.0975222
0.0974595
0.0974278
0.0974029
0.0973941
0.097384
0.097381
0.0973776
0.0973768
0.0973762
0.0973763
0.0973769
0.0973781
0.0975216
0.0974581
0.0974276
0.0974024
0.0973941
0.0973839
0.0973811
0.0973777
0.0973768
0.0973762
0.0973763
0.0973769
0.0929524
0.0986537
0.0929524
0.0986533
0.0929525
0.098653
0.0929527
0.0986529
0.0929528
0.0986528
0.0982499
0.0978568
0.097704
0.0975613
0.097478
0.0974376
0.0974059
0.097395
0.0973844
0.0973809
0.0973774
0.0973764
0.0973757
0.0973757
0.092953
0.098653
0.0982499
0.0978579
0.0977044
0.0975619
0.0974783
0.0974379
0.097406
0.0973952
0.0973845
0.0973809
0.0973774
0.0973763
0.0973757
0.0973757
0.0929532
0.0986532
0.0982497
0.0978589
0.0977047
0.0975625
0.0974785
0.0974381
0.097406
0.0973952
0.0973845
0.0973808
0.0973774
0.0973763
0.0973757
0.0973757
0.0929534
0.0986537
0.0982493
0.0978601
0.0977049
0.0975631
0.0974787
0.0974384
0.0974063
0.0973954
0.0973845
0.0973808
0.0973774
0.0973763
0.0973757
0.0973757
0.0973765
0.0973776
0.0929536
0.0986544
0.0982485
0.0978612
0.0977048
0.0975636
0.0974786
0.0974386
0.0974063
0.0973955
0.0973845
0.0973808
0.0973774
0.0973763
0.0973757
0.0973757
0.0973765
0.0973776
0.0929538
0.0986554
0.0982473
0.0978623
0.0977042
0.097564
0.0974785
0.0974391
0.0974066
0.0973958
0.0973846
0.0973808
0.0973774
0.0973763
0.0973757
0.0973757
0.0973765
0.0973776
0.0929541
0.0986566
0.0982457
0.0978637
0.0977034
0.0975645
0.0974782
0.0974396
0.0974068
0.097396
0.0973846
0.0973808
0.0973774
0.0973763
0.0973758
0.0973757
0.0973765
0.0973776
0.0929544
0.0986583
0.0982435
0.0978648
0.0977021
0.0975646
0.0974777
0.0974402
0.0974072
0.0973963
0.0973846
0.0973807
0.0973774
0.0973763
0.0973758
0.0973758
0.0973764
0.0973776
0.0929547
0.0986601
0.0982413
0.0978666
0.0977011
0.0975654
0.0974776
0.0974412
0.0974075
0.0973966
0.0973848
0.0973808
0.0973775
0.0973763
0.0973758
0.0973758
0.0973765
0.0973777
0.0975657
0.0974773
0.0974419
0.0974077
0.0973969
0.0973847
0.0973807
0.0973775
0.0973764
0.0973759
0.0973759
0.0973765
0.0930789
0.100886
0.093079
0.100885
0.0930791
0.100886
0.0930792
0.100886
0.0930793
0.100886
0.0999718
0.0982527
0.097752
0.0975853
0.0974617
0.0974279
0.0973979
0.0973889
0.0973816
0.0973782
0.0973764
0.0973752
0.0973749
0.097375
0.0930795
0.100887
0.0999719
0.0982536
0.0977522
0.0975856
0.0974618
0.097428
0.0973979
0.0973889
0.0973817
0.0973782
0.0973764
0.0973752
0.0973749
0.097375
0.0930796
0.100888
0.0999718
0.0982546
0.0977523
0.097586
0.0974619
0.0974281
0.097398
0.097389
0.0973816
0.0973781
0.0973764
0.0973752
0.0973749
0.097375
0.0930798
0.100889
0.0999714
0.0982556
0.0977522
0.0975863
0.097462
0.0974284
0.0973981
0.0973891
0.0973816
0.0973781
0.0973763
0.0973752
0.0973749
0.0973751
0.0973752
0.0973768
0.0930799
0.10089
0.0999706
0.0982569
0.0977521
0.0975867
0.097462
0.0974286
0.0973981
0.0973891
0.0973816
0.0973781
0.0973763
0.0973753
0.097375
0.0973751
0.0973752
0.0973768
0.0930801
0.100891
0.0999694
0.098258
0.0977516
0.0975869
0.0974619
0.0974289
0.0973983
0.0973892
0.0973816
0.0973781
0.0973764
0.0973753
0.097375
0.0973751
0.0973752
0.0973768
0.0930803
0.100892
0.0999678
0.0982595
0.0977511
0.0975873
0.0974618
0.0974294
0.0973985
0.0973893
0.0973816
0.0973781
0.0973764
0.0973753
0.097375
0.0973752
0.0973753
0.0973768
0.0930805
0.100894
0.0999655
0.0982608
0.0977499
0.0975873
0.0974613
0.0974298
0.0973986
0.0973894
0.0973815
0.0973781
0.0973764
0.0973753
0.0973751
0.0973752
0.0973753
0.0973768
0.0930808
0.100896
0.0999631
0.0982625
0.0977489
0.0975877
0.0974612
0.0974305
0.0973988
0.0973896
0.0973815
0.0973781
0.0973764
0.0973754
0.0973752
0.0973753
0.0973754
0.0973768
0.0975878
0.0974608
0.097431
0.0973989
0.0973897
0.0973815
0.0973782
0.0973765
0.0973755
0.0973752
0.0973754
0.0973754
0.0931836
0.101301
0.0931836
0.1013
0.100302
0.0996584
0.0982066
0.0978421
0.0975753
0.0931837
0.101301
0.100303
0.0996587
0.0982069
0.0978423
0.0975755
0.0974921
0.0974348
0.0974128
0.0931839
0.101301
0.100303
0.0996593
0.0982073
0.0978426
0.0975756
0.0974922
0.0974348
0.0974127
0.097398
0.0973913
0.097388
0.0973863
0.093184
0.101302
0.100303
0.0996603
0.0982077
0.0978431
0.0975759
0.0974923
0.0974349
0.0974127
0.0973979
0.0973912
0.097388
0.0973863
0.0973857
0.0973861
0.0931842
0.101303
0.100304
0.0996615
0.0982081
0.0978438
0.0975762
0.0974926
0.097435
0.0974127
0.0973979
0.0973912
0.0973879
0.0973863
0.0973858
0.0973861
0.0973859
0.0931843
0.101304
0.100305
0.0996627
0.0982086
0.0978446
0.0975765
0.0974929
0.0974351
0.0974126
0.0973978
0.0973911
0.0973879
0.0973863
0.0973858
0.0973861
0.0973859
0.0973891
0.0931845
0.101305
0.100305
0.0996641
0.098209
0.0978456
0.0975769
0.0974933
0.0974353
0.0974126
0.0973977
0.097391
0.0973879
0.0973863
0.0973858
0.0973861
0.0973859
0.0973891
0.0931847
0.101307
0.100305
0.0996656
0.0982094
0.0978467
0.0975773
0.0974937
0.0974355
0.0974125
0.0973975
0.097391
0.0973879
0.0973863
0.0973859
0.0973861
0.097386
0.097389
0.0973897
0.0931849
0.101308
0.100305
0.0996672
0.0982096
0.0978479
0.0975779
0.0974943
0.0974357
0.0974125
0.0973974
0.0973909
0.0973879
0.0973863
0.0973859
0.0973862
0.097386
0.097389
0.0973897
0.0931851
0.10131
0.100306
0.0996691
0.0982097
0.0978494
0.0975785
0.0974948
0.0974358
0.0974124
0.0973973
0.0973908
0.0973879
0.0973864
0.097386
0.0973862
0.0973861
0.0973889
0.0973897
0.0931853
0.101311
0.100306
0.0996711
0.0982096
0.097851
0.0975793
0.0974953
0.0974358
0.0974123
0.0973971
0.0973907
0.0973879
0.0973864
0.0973861
0.0973863
0.0973861
0.0973889
0.0973896
0.0931856
0.0974356
0.0974122
0.0973969
0.0973906
0.0973879
0.0973865
0.0973861
0.0973864
0.0973862
0.0973889
0.097412
0.0973967
0.0973906
0.0973879
0.0973865
0.0973862
0.0973865
0.0973863
0.0938559
0.103207
0.0938559
0.103206
0.108767
0.101449
0.102793
0.0998573
0.100403
0.0938559
0.103206
0.108767
0.101448
0.102792
0.0998562
0.100402
0.0986287
0.0991865
0.0983304
0.0938559
0.103205
0.108766
0.101448
0.102791
0.0998552
0.1004
0.098627
0.0991831
0.0983299
0.0985626
0.0983219
0.0984002
0.0983422
0.093856
0.103205
0.108766
0.101447
0.10279
0.0998533
0.100398
0.0986242
0.0991785
0.098329
0.0985602
0.098322
0.0983992
0.0983424
0.0983659
0.0983448
0.0938561
0.103204
0.108766
0.101446
0.102788
0.0998513
0.100394
0.0986209
0.0991724
0.098328
0.098557
0.0983223
0.098398
0.0983427
0.0983654
0.0983451
0.0983717
0.0938562
0.103204
0.108766
0.101445
0.102787
0.0998492
0.100391
0.0986174
0.0991657
0.0983271
0.0985537
0.0983227
0.0983969
0.0983433
0.098365
0.0983456
0.0983711
0.0983238
0.0938563
0.103204
0.108767
0.101445
0.102786
0.099847
0.100387
0.0986135
0.0991579
0.0983261
0.0985496
0.0983235
0.0983955
0.098344
0.0983646
0.0983461
0.0983705
0.0983247
0.0938564
0.103203
0.108767
0.101444
0.102784
0.0998447
0.100383
0.0986093
0.0991494
0.0983252
0.0985455
0.0983242
0.0983943
0.0983447
0.0983643
0.0983469
0.0983699
0.0983258
0.0984244
0.0938566
0.103203
0.108768
0.101444
0.102783
0.0998423
0.100379
0.0986048
0.0991401
0.0983244
0.098541
0.0983253
0.098393
0.0983456
0.0983639
0.0983475
0.0983694
0.0983269
0.0984225
0.0938567
0.103202
0.108769
0.101443
0.102781
0.0998397
0.100374
0.0985992
0.0991295
0.0983236
0.0985362
0.0983263
0.0983916
0.0983464
0.0983635
0.0983483
0.0983687
0.0983282
0.0984204
0.0938569
0.103202
0.108771
0.101443
0.102779
0.099837
0.100369
0.0985928
0.0991181
0.0983229
0.0985313
0.0983273
0.0983904
0.0983471
0.0983634
0.0983489
0.0983684
0.0983292
0.0984184
0.0938572
0.0991047
0.0983221
0.0985257
0.0983285
0.098389
0.0983481
0.0983632
0.0983497
0.0983679
0.0983306
0.0983215
0.0985206
0.0983296
0.098388
0.0983489
0.0983632
0.0983503
0.0983677
0.103162
0.104813
0.101396
0.101023
0.0930636
0.0971704
0.0878075
0.101996
0.104371
0.100242
0.10075
0.101642
0.0742373
0.0815703
0.101477
0.102195
0.0920529
0.106644
0.105917
0.10578
0.102602
0.0953246
0.0987214
0.0640496
0.102709
0.10336
0.101407
0.0642906
0.0971736
0.0982525
0.0636883
0.105402
0.107485
0.10504
0.0642104
0.102679
0.0921554
0.0983974
0.102963
0.102583
0.0856317
0.0984875
0.0997375
0.103947
0.0998292
0.0807401
0.0913756
0.0998997
0.102453
0.0951878
0.085656
0.10158
0.0748621
0.10244
0.0993872
0.100618
0.0958332
0.0942712
0.0998615
0.0886537
0.0961966
0.0955563
0.0756826
0.0728462
0.0869485
0.0999776
0.071196
0.0789297
0.101746
0.0688889
0.0992426
0.0730879
0.0881753
0.0961073
0.0692996
0.0762948
0.0962717
0.0990074
0.097791