/*--------------------------------*- C++ -*----------------------------------*\
  =========                 |
  \\      /  F ield         | OpenFOAM: The Open Source CFD Toolbox
   \\    /   O peration     | Website:  https://openfoam.org
    \\  /    A nd           | Version:  10
     \\/     M anipulation  |
\*---------------------------------------------------------------------------*/
FoamFile
{
    format      ascii;
    class       volScalarField;
    location    "0.05";
    object      nut;
}
// * * * * * * * * * * * * * * * * * * * * * * * * * * * * * * * * * * * * * //

dimensions      [0 2 -1 0 0 0 0];

internalField   nonuniform List<scalar> 
114955
(
0.00996406
0.00997195
0.00997516
0.0099748
0.00997613
0.00997541
0.00997695
0.00996752
0.00997156
0.00997503
0.00997551
0.00997512
0.00997611
0.00997613
0.0099627
0.00997089
0.00997577
0.00997513
0.00997699
0.00997672
0.00997753
0.00996741
0.00997076
0.00997519
0.00996792
0.00995125
0.00997516
0.00997676
0.00990201
0.00992837
0.00993339
0.00989676
0.00995239
0.00996427
0.00994309
0.00995946
0.00996873
0.00997382
0.0099561
0.00997188
0.00997529
0.00986388
0.0098395
0.00994661
0.00996141
0.00996991
0.00997352
0.00997366
0.00996883
0.00996819
0.00997447
0.00991428
0.00994718
0.00995723
0.00994223
0.00995866
0.00997123
0.00996615
0.00993897
0.00997476
0.00997329
0.00993035
0.00996801
0.00996015
0.0099031
0.0098666
0.00979528
0.00986716
0.00996461
0.00994742
0.00991914
0.00981857
0.00973667
0.00995542
0.00994934
0.00996223
0.00993392
0.00983273
0.00973806
0.00995551
0.00995526
0.00996614
0.009968
0.00991378
0.0098997
0.0097416
0.0098578
0.0099214
0.00996413
0.00996065
0.00997055
0.00997491
0.0099767
0.00997734
0.00997745
0.00987518
0.00991366
0.00993808
0.00996583
0.00995611
0.00993355
0.00996943
0.00997534
0.0099763
0.00976285
0.00987823
0.00990933
0.00991066
0.00977082
0.00978969
0.00982908
0.00987235
0.00995992
0.00997241
0.00979168
0.00978736
0.00984534
0.00977076
0.00993661
0.00992858
0.00977201
0.00984613
0.00990503
0.00996483
0.00983145
0.00979238
0.00952547
0.00993736
0.00994278
0.00994677
0.00983624
0.00985059
0.00993407
0.00991431
0.00987035
0.00979627
0.00984961
0.00977513
0.00992743
0.00993841
0.0098339
0.00974222
0.0096657
0.0097521
0.00990739
0.00992489
0.00993724
0.00989916
0.00970967
0.00989835
0.00955914
0.00850958
0.00617319
0.00693454
0.00991967
0.00992324
0.00991509
0.00983145
0.00981507
0.00964995
0.00886142
0.00600473
0.00848435
0.00855283
0.00993988
0.00995075
0.00992556
0.00985117
0.00961037
0.00886366
0.00622465
0.00882069
0.00942902
0.00995497
0.00996199
0.00990413
0.00987171
0.00965493
0.00867642
0.00627692
0.00965837
0.00952208
0.00972934
0.00974411
0.00986578
0.00995401
0.00995392
0.00995781
0.00997083
0.00997427
0.00997645
0.00947978
0.00931746
0.00982297
0.00976963
0.00973838
0.00954992
0.0096989
0.00974616
0.00984446
0.00995435
0.00997008
0.00961028
0.00961376
0.00975565
0.00965497
0.00849355
0.00610019
0.0060112
0.00835928
0.00946289
0.0098299
0.00994654
0.00947386
0.00917427
0.0094545
0.00848052
0.0061549
0.00821962
0.00881174
0.00615588
0.00867291
0.00955375
0.00984781
0.00965136
0.00853176
0.005433
0.00856079
0.00893922
0.00941835
0.00764523
0.00889345
0.00954597
0.00983647
0.00978502
0.00942186
0.00818429
0.00630082
0.00813936
0.00954324
0.00907351
0.00643678
0.00691044
0.00662906
0.0098955
0.00983485
0.00975928
0.00841336
0.00612242
0.00906878
0.00928492
0.00802051
0.008316
0.008641
0.00990313
0.00992067
0.00989351
0.0095597
0.00839085
0.00717294
0.00822131
0.00761667
0.00674418
0.00917756
0.00990874
0.00985458
0.00955176
0.00909604
0.00612044
0.00756841
0.00611201
0.00931046
0.00953193
0.00995781
0.00990079
0.0096577
0.00895424
0.00655511
0.00820759
0.00662347
0.00991538
0.00985689
0.00991422
0.00996143
0.00996342
0.00997236
0.00997491
0.00997552
0.0099768
0.00997712
0.00949076
0.00971858
0.00970936
0.00989366
0.00995453
0.00994726
0.00994959
0.0099727
0.00997393
0.00997694
0.00886722
0.00814124
0.00587437
0.00661785
0.00857734
0.00949471
0.00977206
0.00986803
0.00991725
0.0099658
0.00997227
0.00917759
0.00550318
0.00617925
0.00703729
0.00610472
0.00635821
0.00855629
0.00950578
0.00984682
0.00990516
0.00996403
0.00916737
0.00616552
0.00681585
0.00774694
0.00755677
0.00802809
0.00739896
0.00594597
0.00871118
0.00964562
0.00989459
0.00924891
0.00604076
0.00709922
0.00680951
0.00777516
0.00901769
0.00805938
0.0058347
0.00523508
0.00880181
0.00959941
0.00907941
0.00833367
0.00597873
0.00567975
0.00861764
0.0094904
0.00948396
0.00889811
0.00738021
0.00583063
0.00867425
0.00967514
0.00860831
0.00585376
0.0056563
0.00928853
0.00954903
0.0094232
0.00769052
0.00813939
0.00734983
0.00981087
0.00942754
0.00841827
0.00607941
0.00555879
0.00936857
0.00941459
0.00724029
0.00839954
0.0089366
0.00991096
0.00988199
0.00977202
0.00853175
0.00571154
0.00664713
0.00632403
0.00289849
0.00338017
0.0029398
0.00991436
0.0098367
0.00955836
0.00873095
0.00631837
0.006041
0.00335573
0.00547618
0.0059974
0.00991426
0.0098608
0.00963734
0.00644571
0.00778818
0.00383337
0.00367159
0.00978503
0.00979246
0.00988577
0.00992593
0.00994805
0.00996575
0.00995396
0.00996697
0.00997374
0.00997638
0.009977
0.00945209
0.00926428
0.00983381
0.00977219
0.00976398
0.00976442
0.00984706
0.00991825
0.00996034
0.00997341
0.00997609
0.0089038
0.0056139
0.00607974
0.00671449
0.00594631
0.00635314
0.00853844
0.00950265
0.0099009
0.00995767
0.00997014
0.00934913
0.0061588
0.0047361
0.00254121
0.00777375
0.00758897
0.00544996
0.00863667
0.00969139
0.0099206
0.00992722
0.00970393
0.00674982
0.00254588
0.0030366
0.00289866
0.00561203
0.00609999
0.00622971
0.00901934
0.00982991
0.00983265
0.00944765
0.0060581
0.00533232
0.00317779
0.00304083
0.00243834
0.00301881
0.00693443
0.00646961
0.00893491
0.00976247
0.00910439
0.00595196
0.0062388
0.00541936
0.00269745
0.0017465
0.00126817
0.0021215
0.00650055
0.00701631
0.00911229
0.00862868
0.00607879
0.00551352
0.00277534
0.00145783
0.00143501
0.00135778
0.00297202
0.00844053
0.00780105
0.00973439
0.00891125
0.00552044
0.00598366
0.00276148
0.00340666
0.00144037
0.0014709
0.00294958
0.0034474
0.00983589
0.00949935
0.00872919
0.00599828
0.00627577
0.00285698
0.00147815
0.00152429
0.00128422
0.00136862
0.00881539
0.00535716
0.00609622
0.00294999
0.00141672
0.000221229
0.00956774
0.0073941
0.00813506
0.00376458
0.000493959
0.00978815
0.00978482
0.00987615
0.00992093
0.00994086
0.00996319
0.00995745
0.00996787
0.0099731
0.00997594
0.00997655
0.00970928
0.00945628
0.00926117
0.00983792
0.0098019
0.00987514
0.00974047
0.00980912
0.00990426
0.00995685
0.00996974
0.00997513
0.0096334
0.00888435
0.00620671
0.0066956
0.00645335
0.00726708
0.00539998
0.00855403
0.0095398
0.00989476
0.00995245
0.00996354
0.00984992
0.00930551
0.00627779
0.00251551
0.00290334
0.00226485
0.00779188
0.00509574
0.00866023
0.00972269
0.00991125
0.00992436
0.00987205
0.00962993
0.00847576
0.00490578
0.00071178
0.00135569
0.00239328
0.00749339
0.00548803
0.00897584
0.00976295
0.00976646
0.00941801
0.00838704
0.00269533
0.00127631
9.97768e-05
0.00131309
0.00377029
0.00688052
0.00520731
0.00893635
0.00965016
0.00907811
0.00599305
0.00722009
0.00280812
0.00121892
6.13653e-05
0.000656356
0.00238423
0.00740742
0.00543804
0.00904564
0.00864619
0.00585504
0.00628623
0.00324437
0.00122506
0.000899377
0.00366025
0.00674375
0.00738117
0.00973601
0.00887922
0.00525491
0.0063819
0.00271965
0.00144336
0.000146262
0.000670105
0.00295853
0.00983062
0.00948271
0.00875729
0.00574101
0.00656439
0.00429085
0.00119918
0.00036237
0.00883995
0.00511951
0.00582589
0.0047874
0.000662527
0.00959346
0.00834628
0.00815801
0.00988404
0.00991492
0.00988075
0.00991879
0.00994244
0.00992397
0.00996567
0.00997512
0.00997707
0.0099774
0.00997746
0.00975596
0.00982549
0.00965739
0.00947611
0.00973717
0.0097397
0.00973893
0.00975852
0.00988429
0.00995271
0.00997182
0.00997641
0.00997738
0.00971324
0.00955742
0.00886102
0.00807771
0.00626966
0.0065523
0.00556117
0.00826582
0.00951839
0.00988446
0.00995656
0.00997159
0.00997563
0.00972572
0.0096204
0.00918406
0.00582968
0.00595654
0.0082274
0.00650201
0.00531854
0.0085125
0.00966047
0.00991499
0.00996636
0.00997176
0.00974469
0.00971394
0.00917795
0.00618246
0.00464682
0.00319863
0.00233517
0.00767489
0.00535309
0.00851923
0.00973359
0.00990951
0.00995097
0.00973172
0.00965816
0.00922783
0.00613904
0.00721135
0.00277956
0.00356682
0.0023927
0.00796943
0.00495528
0.00856258
0.00974289
0.00979467
0.00972608
0.00961204
0.00906445
0.00832039
0.00585695
0.00568824
0.00317809
0.00384876
0.00326386
0.00644236
0.00516259
0.0088147
0.009792
0.00976004
0.00985219
0.00976561
0.00965337
0.00861283
0.00472438
0.00512038
0.00368306
0.00537716
0.00349607
0.00648599
0.00656366
0.00794922
0.00975689
0.00983426
0.00986377
0.00981684
0.00944917
0.00843165
0.00559161
0.00675928
0.00287614
0.00517395
0.00332088
0.00317763
0.00991113
0.00987108
0.00974252
0.00853197
0.00486873
0.0057379
0.00416049
0.00407696
0.00108471
0.009078
0.00702575
0.00733663
0.0022038
0.00989335
0.00990563
0.00993019
0.009946
0.00995791
0.00996872
0.00997241
0.00997509
0.00997595
0.00997691
0.00997704
0.00975454
0.0098447
0.00989017
0.00991554
0.00981379
0.00986899
0.00991684
0.00986359
0.0099507
0.00997166
0.00997609
0.00997659
0.00997731
0.00975422
0.00982832
0.0096637
0.00943768
0.0096369
0.00959716
0.00955338
0.00963525
0.00985862
0.00994567
0.00996769
0.00997411
0.0099747
0.00971531
0.00966459
0.00916958
0.00848133
0.00622864
0.00654561
0.00559677
0.00823857
0.00964201
0.00993485
0.00996848
0.00997038
0.00997105
0.00972778
0.0097309
0.00935239
0.00872004
0.00718885
0.00767499
0.00857949
0.00594256
0.00843358
0.00968523
0.00992727
0.00996668
0.00996618
0.0097172
0.00966363
0.00920351
0.00852478
0.00642564
0.00761943
0.00902154
0.0086934
0.00589178
0.00845066
0.00972658
0.00992114
0.0099581
0.00975905
0.00985485
0.00974407
0.00959865
0.00854362
0.00521344
0.008673
0.00894274
0.00879509
0.00583966
0.00860322
0.00966675
0.00978647
0.00975027
0.0098296
0.00987291
0.00983722
0.00940404
0.00832482
0.0061484
0.00844283
0.00924972
0.00878912
0.00699971
0.00676746
0.007234
0.00976377
0.00986474
0.00991463
0.00991607
0.00985109
0.0097301
0.00843591
0.00557376
0.00809696
0.00898142
0.00787101
0.0059752
0.00991098
0.00991896
0.00990265
0.00963213
0.00864059
0.00738062
0.00869106
0.00708349
0.00272708
0.00950692
0.00801284
0.0077649
0.00280705
0.00539486
0.00990591
0.00993287
0.00993938
0.00994967
0.00996242
0.00996328
0.00997208
0.00997515
0.00997668
0.00997717
0.00997751
0.00975998
0.00985706
0.00989181
0.0099045
0.00993219
0.00994735
0.00995672
0.00996952
0.00997208
0.00997423
0.00997562
0.00997704
0.00997746
0.00975633
0.00984555
0.00989122
0.00991789
0.00981296
0.00986891
0.00991462
0.00986774
0.00994703
0.0099702
0.009975
0.00997631
0.00997714
0.00300041
0.00956661
0.00976151
0.00984612
0.00977456
0.00970647
0.00976771
0.00973988
0.00974387
0.00980739
0.00992628
0.00995629
0.0099685
0.00997401
0.00997568
0.00300041
0.00956812
0.00976038
0.00985135
0.00981835
0.00968177
0.0098284
0.00984557
0.00988575
0.00975799
0.00992279
0.0099457
0.0099666
0.00996988
0.00997082
0.00300042
0.00956584
0.00976254
0.00984785
0.00977638
0.00970281
0.00979547
0.00982843
0.00989876
0.00992123
0.00976292
0.00987542
0.00993869
0.00996059
0.00996432
0.00975643
0.00984224
0.00987339
0.00986178
0.00973622
0.00959213
0.00991228
0.00993634
0.00993369
0.00976686
0.00987564
0.00993359
0.00994505
0.00976226
0.00985846
0.00989983
0.00989731
0.00983611
0.00982653
0.00977994
0.00991127
0.00993507
0.00988369
0.00978936
0.00965475
0.00973071
0.00976045
0.00985441
0.00990185
0.00991923
0.00993427
0.0099337
0.00989946
0.00972121
0.00987971
0.00966406
0.00850135
0.00651611
0.00744081
0.00992577
0.00992984
0.00991057
0.00984884
0.00979729
0.00966871
0.0087105
0.00639258
0.00773201
0.00831773
0.00974406
0.00911493
0.0062998
0.00775557
0.00990725
0.00992943
0.00994503
0.00995606
0.00996522
0.00997072
0.00997458
0.00997561
0.0099766
0.00997707
0.00997723
0.00997814
0.00975921
0.00985808
0.00990849
0.00993429
0.00993912
0.00994982
0.00996323
0.009964
0.00997193
0.00997484
0.00997667
0.00997787
0.0099776
0.0099773
0.00300035
0.00956878
0.00975874
0.00985614
0.00989796
0.00990942
0.00992705
0.00994435
0.00995759
0.00996888
0.00997301
0.00997519
0.00997611
0.00997713
0.00997713
0.00300036
0.00956872
0.00975558
0.00984793
0.00990865
0.00993076
0.00987144
0.00991361
0.00994485
0.00993183
0.00996065
0.00997239
0.00997616
0.00997679
0.00997759
0.00300037
0.00956875
0.00975711
0.00985238
0.00990998
0.00993593
0.00987023
0.00990134
0.00994545
0.00996527
0.00996652
0.0099718
0.00997484
0.00997697
0.00997696
0.00300037
0.00956776
0.00975606
0.0098475
0.00990931
0.00993422
0.00985728
0.00989868
0.0099535
0.00996743
0.009971
0.00995433
0.00996964
0.00997515
0.00997768
0.00300037
0.0095672
0.00976047
0.00985801
0.00990274
0.00989479
0.00986786
0.00991929
0.00995231
0.00996613
0.00997065
0.00997524
0.00996527
0.00997288
0.00997482
0.00975942
0.00985469
0.00990751
0.0099303
0.00994623
0.009947
0.00993927
0.00995615
0.00996838
0.00995907
0.0099511
0.00997344
0.00997619
0.00976217
0.00985994
0.00991142
0.00992642
0.00993484
0.00992836
0.00993037
0.00996435
0.00996077
0.00992999
0.00990314
0.00978916
0.00986089
0.00993023
0.00994908
0.0099591
0.00996564
0.00995248
0.00989805
0.00988121
0.00975366
0.0099534
0.00994222
0.00993531
0.00986858
0.00975172
0.00995526
0.00990903
0.00993382
0.00994849
0.00995827
0.00996652
0.00996991
0.00997358
0.00997533
0.00997654
0.00997706
0.00997809
0.00997729
0.00300034
0.00956795
0.00975992
0.00985937
0.00990636
0.00992943
0.00994634
0.00995742
0.00996585
0.00997102
0.00997424
0.0099755
0.00997656
0.00997718
0.00997746
0.00997816
0.00300035
0.00956793
0.00975958
0.00985858
0.00990628
0.009931
0.00994012
0.00995232
0.00996287
0.00996532
0.00997221
0.00997497
0.00997665
0.00997719
0.00997818
0.00997733
0.00300036
0.00956716
0.00975955
0.00985762
0.00989726
0.00991443
0.0099366
0.00995199
0.00996296
0.00997015
0.00997389
0.00997515
0.00997619
0.00997704
0.00997732
0.00997785
0.00997631
0.00300036
0.00956724
0.00975968
0.00985781
0.00990018
0.00991499
0.00993928
0.00995146
0.00996215
0.00996541
0.00997212
0.0099747
0.0099766
0.00997685
0.00997777
0.00997675
0.00997683
0.00300037
0.00956636
0.00976
0.00985751
0.00989776
0.00991311
0.00993806
0.00995184
0.00996422
0.00996976
0.00997259
0.00997542
0.00997615
0.00997677
0.0099769
0.00997721
0.00997565
0.00300037
0.00956608
0.00976018
0.00985751
0.00990499
0.00992663
0.00993848
0.00994745
0.00996371
0.00996687
0.00997189
0.00997207
0.00997512
0.00997594
0.00997726
0.00997581
0.00997692
0.00976109
0.00985865
0.0099078
0.00992839
0.00994133
0.00995174
0.0099632
0.00996721
0.00997379
0.00997565
0.0099761
0.00997603
0.00997742
0.00997725
0.00997539
0.0097614
0.00985844
0.00990977
0.0099318
0.00994935
0.00995861
0.00996347
0.00996307
0.00997065
0.0099642
0.00995656
0.00997609
0.00997696
0.009977
0.00997537
0.0099323
0.00994828
0.00995357
0.00996009
0.00996133
0.00996859
0.00996371
0.0099738
0.00997454
0.00997714
0.00997711
0.00997187
0.00300034
0.00956844
0.00300034
0.00956825
0.00975871
0.0098588
0.0099084
0.00993354
0.00994923
0.00995964
0.00996722
0.00997133
0.00997432
0.00997557
0.0099766
0.00997705
0.00997767
0.00997791
0.00300035
0.00956796
0.00975868
0.00985859
0.0099085
0.0099342
0.00994829
0.00995871
0.00996686
0.00997032
0.00997364
0.00997534
0.00997658
0.00997716
0.00997827
0.00997739
0.00300035
0.00956779
0.00975854
0.00985799
0.0099071
0.00993159
0.00994571
0.00995748
0.00996587
0.00997113
0.00997467
0.00997583
0.00997684
0.00997725
0.00997741
0.00997828
0.00300036
0.00956731
0.00975852
0.00985759
0.00990883
0.009935
0.0099421
0.00995526
0.00996472
0.00996802
0.00997266
0.00997488
0.00997653
0.00997743
0.00997811
0.00997747
0.00997728
0.00997681
0.00300037
0.00956717
0.00975868
0.00985748
0.00990808
0.00993271
0.00994043
0.00995381
0.00996451
0.00997062
0.00997501
0.00997603
0.00997709
0.00997739
0.00997753
0.00997821
0.00997667
0.00997587
0.00300037
0.00956647
0.00975886
0.00985729
0.00990911
0.00993484
0.0099414
0.0099548
0.00996485
0.00996983
0.00997341
0.00997401
0.00997622
0.00997765
0.00997804
0.0099776
0.00997736
0.00997702
0.00300037
0.00956617
0.00975935
0.00985746
0.00990749
0.00992935
0.00993984
0.0099548
0.00996438
0.00997036
0.00997404
0.00997567
0.0099772
0.00997724
0.0099776
0.00997793
0.0099761
0.00997665
0.00300037
0.00956543
0.00975964
0.00985732
0.00990926
0.00993341
0.00994933
0.00995963
0.00996482
0.00996984
0.00997311
0.00997445
0.00997617
0.00997716
0.00997835
0.00997769
0.00997726
0.00997644
0.00976026
0.00985745
0.00990947
0.00993161
0.00994709
0.00995595
0.00996252
0.00997045
0.00997365
0.00997457
0.00997667
0.00997581
0.00997756
0.00997782
0.0099754
0.00997657
0.00993317
0.00995093
0.00996017
0.00996705
0.00997096
0.00997174
0.00997345
0.00997557
0.00997698
0.0099781
0.0099782
0.00997676
0.00300037
0.00956797
0.00300037
0.0095679
0.00300038
0.0095677
0.00975637
0.00985715
0.00990657
0.00993368
0.00994969
0.0099604
0.00996767
0.00997147
0.00997406
0.00997553
0.00997657
0.00997707
0.00997798
0.00997752
0.00300038
0.00956743
0.00975627
0.00985683
0.00990581
0.00993273
0.00994895
0.00996004
0.00996743
0.00997152
0.00997416
0.00997561
0.00997665
0.00997717
0.00997797
0.00997775
0.00300039
0.0095672
0.00975633
0.00985658
0.00990552
0.00993251
0.00994828
0.00995951
0.00996725
0.00997124
0.00997397
0.00997558
0.00997668
0.00997719
0.00997813
0.00997752
0.00300039
0.00956676
0.0097562
0.00985606
0.00990422
0.00993062
0.0099472
0.00995911
0.00996684
0.00997138
0.00997416
0.00997565
0.00997674
0.00997726
0.00997787
0.00997778
0.00997705
0.00997655
0.0030004
0.00956651
0.00975647
0.00985596
0.00990458
0.00993049
0.00994741
0.00995901
0.00996701
0.00997131
0.00997396
0.00997554
0.0099767
0.00997724
0.00997825
0.00997752
0.00997721
0.00997671
0.0030004
0.00956596
0.00975657
0.0098557
0.00990451
0.00993033
0.00994731
0.00995882
0.0099668
0.00997113
0.00997379
0.00997564
0.00997683
0.00997731
0.00997785
0.00997766
0.00997713
0.00997668
0.0030004
0.00956551
0.00975708
0.00985582
0.0099057
0.00993156
0.00994822
0.00995893
0.00996685
0.00997073
0.00997351
0.00997536
0.00997651
0.00997731
0.00997829
0.00997762
0.00997726
0.00997636
0.00300041
0.00956495
0.00975738
0.00985565
0.00990658
0.009932
0.00994878
0.00995878
0.00996647
0.00997039
0.0099736
0.00997577
0.00997676
0.00997732
0.00997804
0.00997761
0.00997717
0.00997668
0.00975794
0.00985559
0.00990738
0.00993264
0.00995004
0.0099596
0.00996673
0.00996984
0.0099726
0.00997488
0.00997578
0.00997761
0.00997827
0.00997778
0.00997726
0.00997569
0.00993295
0.00995053
0.00995899
0.00996606
0.0099693
0.00997299
0.00997589
0.00997662
0.00997731
0.00997816
0.0099776
0.00997703
0.00300043
0.00957159
0.00300044
0.00957152
0.00300044
0.00957129
0.00974769
0.00985134
0.00990179
0.00993273
0.00994923
0.0099607
0.00996797
0.00997178
0.00997433
0.00997566
0.00997667
0.00997712
0.00997775
0.00997767
0.00300044
0.00957109
0.00974767
0.00985124
0.00990165
0.00993267
0.00994896
0.00996049
0.00996786
0.00997162
0.00997419
0.00997563
0.0099767
0.00997718
0.00997798
0.00997761
0.00300045
0.00957087
0.00974762
0.00985088
0.00990123
0.00993205
0.00994834
0.00996019
0.0099677
0.00997174
0.00997441
0.00997575
0.0099768
0.00997723
0.00997778
0.00997787
0.00300045
0.00957046
0.00974777
0.00985084
0.00990141
0.00993245
0.00994792
0.00995992
0.00996748
0.00997131
0.00997403
0.00997556
0.00997674
0.00997723
0.00997811
0.00997756
0.00997719
0.00997673
0.00300046
0.00957014
0.00974787
0.00985048
0.00990117
0.00993173
0.00994754
0.00995961
0.00996744
0.00997157
0.00997439
0.00997576
0.00997692
0.00997731
0.00997778
0.00997805
0.00997714
0.00997661
0.00300046
0.00956962
0.00974816
0.00985046
0.00990159
0.00993227
0.00994792
0.00995982
0.00996739
0.00997131
0.00997405
0.00997547
0.00997676
0.00997728
0.00997816
0.00997765
0.00997728
0.00997686
0.00300047
0.00956922
0.00974837
0.00985001
0.00990135
0.00993125
0.00994763
0.00995951
0.00996711
0.00997124
0.00997415
0.00997566
0.00997699
0.00997734
0.00997788
0.00997808
0.00997714
0.0099767
0.00300047
0.00956862
0.00974883
0.00985006
0.00990232
0.00993218
0.00994933
0.00996033
0.00996726
0.00997114
0.00997401
0.00997549
0.00997683
0.00997732
0.00997809
0.00997788
0.00997728
0.0099768
0.00300047
0.00956803
0.00974924
0.00984965
0.00990247
0.00993159
0.00994904
0.0099595
0.00996657
0.00997085
0.00997395
0.00997549
0.00997696
0.00997731
0.009978
0.00997804
0.00997722
0.00997672
0.00993217
0.00995015
0.00996017
0.00996723
0.00997094
0.00997395
0.00997539
0.00997684
0.00997736
0.00997804
0.00997805
0.00997727
0.00300054
0.00957335
0.00300054
0.00957334
0.00300054
0.00957316
0.00300055
0.00957309
0.00300055
0.00957283
0.00973904
0.00984769
0.00989599
0.00993132
0.00994802
0.00996033
0.00996789
0.00997174
0.00997429
0.00997565
0.0099767
0.00997714
0.00997772
0.00997746
0.00300055
0.00957262
0.00973902
0.00984744
0.0098957
0.00993104
0.00994775
0.0099602
0.00996782
0.00997171
0.00997431
0.00997569
0.00997676
0.00997721
0.00997781
0.00997751
0.00300056
0.00957236
0.00973907
0.00984719
0.00989549
0.0099308
0.0099476
0.00996012
0.00996782
0.00997174
0.00997428
0.0099757
0.00997677
0.00997722
0.00997782
0.00997755
0.00300056
0.00957203
0.00973908
0.00984689
0.00989521
0.0099304
0.00994729
0.00995995
0.00996764
0.00997163
0.00997425
0.00997571
0.00997681
0.00997727
0.00997785
0.00997755
0.00997715
0.00997667
0.00300056
0.0095717
0.00973928
0.00984668
0.00989526
0.00993023
0.00994737
0.00995994
0.00996768
0.00997164
0.00997422
0.0099757
0.0099768
0.00997728
0.00997791
0.00997763
0.00997722
0.00997672
0.00300057
0.00957124
0.00973947
0.00984649
0.00989541
0.00993019
0.00994742
0.00995983
0.00996748
0.0099714
0.00997411
0.0099757
0.00997684
0.00997732
0.00997789
0.00997758
0.00997724
0.00997675
0.00300057
0.00957075
0.00973987
0.00984634
0.00989577
0.00993024
0.00994775
0.00995983
0.00996743
0.00997129
0.00997404
0.00997569
0.0099768
0.00997734
0.00997797
0.00997767
0.00997727
0.00997669
0.00300058
0.00957017
0.00974025
0.00984619
0.00989633
0.00993042
0.0099481
0.00995968
0.00996719
0.009971
0.00997397
0.00997571
0.00997684
0.00997737
0.00997796
0.00997764
0.0099773
0.00997676
0.00300058
0.00956952
0.00974076
0.00984596
0.00989677
0.00993038
0.00994839
0.00995959
0.00996708
0.00997079
0.00997375
0.00997563
0.00997675
0.00997743
0.00997802
0.00997768
0.00997735
0.00997666
0.0099305
0.00994874
0.00995942
0.00996686
0.0099705
0.00997375
0.00997574
0.00997684
0.00997742
0.00997804
0.00997766
0.00997736
0.00300096
0.00959032
0.00300096
0.00959025
0.00300096
0.00959017
0.00300096
0.00959009
0.00300097
0.00958998
0.00968563
0.00982676
0.00988273
0.009928
0.00994833
0.00996069
0.0099687
0.00997199
0.00997462
0.00997568
0.00997671
0.00997705
0.00997734
0.00997737
0.00300097
0.00958985
0.0096856
0.00982657
0.00988259
0.0099279
0.00994823
0.00996064
0.00996867
0.00997196
0.00997461
0.00997571
0.00997675
0.0099771
0.00997741
0.00997741
0.00300097
0.00958971
0.0096856
0.00982629
0.00988242
0.00992768
0.00994809
0.00996055
0.00996864
0.00997196
0.00997463
0.00997573
0.00997678
0.00997712
0.00997741
0.00997744
0.00300097
0.00958954
0.00968571
0.0098261
0.00988242
0.00992766
0.00994801
0.00996047
0.00996856
0.00997185
0.00997456
0.00997571
0.00997678
0.00997714
0.00997746
0.00997745
0.00997708
0.00997666
0.00300098
0.00958938
0.00968586
0.00982579
0.00988241
0.00992744
0.00994798
0.00996039
0.00996852
0.00997182
0.0099746
0.00997574
0.00997682
0.00997717
0.00997747
0.00997752
0.00997712
0.00997668
0.00300098
0.00958919
0.00968615
0.00982564
0.00988267
0.00992753
0.00994813
0.00996038
0.00996843
0.00997169
0.00997453
0.00997571
0.00997681
0.00997718
0.00997752
0.00997751
0.00997716
0.00997672
0.00300098
0.00958898
0.00968647
0.0098253
0.00988281
0.00992728
0.00994816
0.00996023
0.00996829
0.00997157
0.00997453
0.00997573
0.00997686
0.00997722
0.00997756
0.00997761
0.00997717
0.00997671
0.00300099
0.00958874
0.00968698
0.0098252
0.0098834
0.0099275
0.00994859
0.0099603
0.00996824
0.00997146
0.00997451
0.00997572
0.00997685
0.00997724
0.00997757
0.00997758
0.0099772
0.00997674
0.00300099
0.00958846
0.00968749
0.00982484
0.00988372
0.00992728
0.00994858
0.00995999
0.00996802
0.00997126
0.00997447
0.00997573
0.00997689
0.00997727
0.00997766
0.00997767
0.00997723
0.00997674
0.00992743
0.00994891
0.00995999
0.00996806
0.0099712
0.00997449
0.00997574
0.00997688
0.0099773
0.00997761
0.00997767
0.00997725
0.00300124
0.0095831
0.00300124
0.00958307
0.00300124
0.00958307
0.00300125
0.00958302
0.00300125
0.00958297
0.00966172
0.00981673
0.00987031
0.00991615
0.00994301
0.00995628
0.00996662
0.00997018
0.00997357
0.00997478
0.00997597
0.00997633
0.00997664
0.00997656
0.00300125
0.00958289
0.00966165
0.00981651
0.00987019
0.00991603
0.00994295
0.00995624
0.00996662
0.00997018
0.00997359
0.00997482
0.00997601
0.00997638
0.00997669
0.0099766
0.00300126
0.00958277
0.00966163
0.00981624
0.00987009
0.00991588
0.00994291
0.00995621
0.00996662
0.00997018
0.00997359
0.00997484
0.00997603
0.00997639
0.0099767
0.00997661
0.00300126
0.00958259
0.00966167
0.00981596
0.00987004
0.00991571
0.00994285
0.00995612
0.00996653
0.00997011
0.00997358
0.00997486
0.00997605
0.00997641
0.00997672
0.00997663
0.00997635
0.00997589
0.00300126
0.00958237
0.0096618
0.00981566
0.00987007
0.00991556
0.00994289
0.00995607
0.00996648
0.00997008
0.00997359
0.00997488
0.00997606
0.00997643
0.00997675
0.00997665
0.00997641
0.00997594
0.00300127
0.00958207
0.00966202
0.00981539
0.00987021
0.00991545
0.00994293
0.00995594
0.00996635
0.00996997
0.00997357
0.00997489
0.00997609
0.00997646
0.00997677
0.00997667
0.00997643
0.00997597
0.00300127
0.00958172
0.00966234
0.00981506
0.00987038
0.00991531
0.00994301
0.00995581
0.00996626
0.00996989
0.00997358
0.00997492
0.0099761
0.00997648
0.0099768
0.0099767
0.00997646
0.00997598
0.00300128
0.00958127
0.00966277
0.00981478
0.0098707
0.00991527
0.00994313
0.00995561
0.00996611
0.00996976
0.00997356
0.00997493
0.00997612
0.00997651
0.00997683
0.00997672
0.00997649
0.00997601
0.00300128
0.00958077
0.00966323
0.00981435
0.00987099
0.00991512
0.00994315
0.00995537
0.00996598
0.00996965
0.00997355
0.00997496
0.00997614
0.00997654
0.00997687
0.00997674
0.00997652
0.00997602
0.00991505
0.00994322
0.00995514
0.00996586
0.00996953
0.00997355
0.00997498
0.00997616
0.00997657
0.0099769
0.00997676
0.00997655
0.00300462
0.00848314
0.00300462
0.00848321
0.00300462
0.00848258
0.00300462
0.00848191
0.00300462
0.00848035
0.00937586
0.00975633
0.00987345
0.00991659
0.00994901
0.00995807
0.00996639
0.0099688
0.00997088
0.00997186
0.00997242
0.00997277
0.00997287
0.00997284
0.00300463
0.00847878
0.00937563
0.0097561
0.00987341
0.00991655
0.009949
0.00995807
0.00996642
0.00996882
0.00997091
0.0099719
0.00997247
0.00997281
0.00997291
0.00997288
0.00300463
0.00847654
0.00937546
0.00975582
0.00987338
0.00991647
0.00994897
0.00995806
0.00996642
0.00996882
0.00997093
0.00997192
0.00997248
0.00997282
0.00997292
0.00997289
0.00300463
0.00847424
0.00937536
0.00975554
0.00987339
0.00991642
0.00994895
0.00995801
0.00996639
0.00996881
0.00997094
0.00997194
0.0099725
0.00997284
0.00997294
0.00997291
0.00997283
0.00997234
0.00300463
0.00847121
0.00937533
0.00975522
0.00987343
0.00991634
0.00994895
0.00995796
0.00996637
0.0099688
0.00997097
0.00997196
0.00997253
0.00997287
0.00997296
0.00997294
0.00997287
0.00997239
0.00300464
0.00846815
0.00937542
0.00975492
0.00987355
0.00991631
0.00994898
0.0099579
0.00996633
0.00996878
0.00997098
0.00997199
0.00997255
0.00997289
0.00997298
0.00997296
0.0099729
0.00997242
0.00300464
0.00846415
0.00937559
0.00975456
0.00987369
0.00991623
0.00994901
0.0099578
0.00996628
0.00996876
0.00997101
0.00997202
0.00997258
0.00997292
0.009973
0.00997299
0.00997292
0.00997244
0.00300464
0.00846013
0.00937593
0.00975424
0.00987396
0.00991627
0.00994912
0.00995771
0.00996625
0.00996874
0.00997103
0.00997205
0.0099726
0.00997295
0.00997302
0.00997301
0.00997295
0.00997247
0.00300465
0.00845488
0.00937635
0.00975385
0.00987422
0.00991621
0.00994915
0.00995754
0.00996618
0.00996871
0.00997105
0.00997208
0.00997263
0.00997298
0.00997305
0.00997305
0.00997297
0.0099725
0.00991621
0.00994923
0.00995741
0.00996617
0.00996871
0.00997108
0.00997211
0.00997265
0.00997301
0.00997306
0.00997308
0.00997299
0.00301567
0.00834121
0.00301567
0.0083402
0.00942219
0.00939944
0.00982482
0.00982648
0.00991659
0.00301567
0.00834009
0.00942204
0.00939938
0.00982477
0.00982648
0.00991658
0.00991272
0.00993617
0.00993187
0.00301567
0.00834012
0.00942197
0.00939936
0.00982473
0.00982648
0.00991656
0.00991275
0.00993618
0.00993191
0.00993956
0.00993739
0.00993957
0.00993835
0.00301567
0.0083399
0.00942096
0.0093993
0.00982472
0.00982648
0.00991661
0.00991279
0.00993621
0.00993197
0.0099396
0.00993745
0.00993961
0.0099384
0.00993899
0.00993849
0.00301568
0.00833981
0.00942088
0.00939924
0.00982465
0.00982645
0.00991656
0.00991282
0.00993618
0.00993201
0.0099396
0.00993749
0.00993959
0.00993841
0.009939
0.00993852
0.00993911
0.00301568
0.00833963
0.00942081
0.00939916
0.00982456
0.00982642
0.00991651
0.00991284
0.00993614
0.00993206
0.00993959
0.00993752
0.00993958
0.00993843
0.009939
0.00993853
0.00993911
0.00993812
0.00301568
0.00833943
0.00942076
0.00939907
0.00982449
0.00982637
0.00991643
0.00991286
0.00993608
0.00993212
0.00993957
0.00993757
0.00993956
0.00993845
0.00993899
0.00993855
0.00993913
0.00993819
0.00301569
0.00833918
0.00942072
0.00939896
0.00982444
0.00982631
0.00991636
0.00991287
0.00993602
0.00993218
0.00993956
0.00993761
0.00993954
0.00993848
0.00993898
0.00993857
0.00993911
0.00993822
0.00993982
0.00301569
0.0083389
0.00942074
0.00939885
0.00982443
0.00982625
0.00991626
0.00991288
0.00993594
0.00993224
0.00993953
0.00993766
0.00993951
0.0099385
0.00993897
0.00993859
0.0099391
0.00993825
0.00993982
0.00301569
0.00833856
0.00942076
0.00939871
0.00982442
0.00982617
0.00991614
0.00991289
0.00993588
0.00993231
0.00993951
0.00993771
0.00993948
0.00993852
0.00993896
0.00993861
0.00993909