/*--------------------------------*- C++ -*----------------------------------*\
  =========                 |
  \\      /  F ield         | OpenFOAM: The Open Source CFD Toolbox
   \\    /   O peration     | Website:  https://openfoam.org
    \\  /    A nd           | Version:  10
     \\/     M anipulation  |
\*---------------------------------------------------------------------------*/
FoamFile
{
    format      ascii;
    class       volScalarField;
    location    "0.05";
    object      omega_0;
}
// * * * * * * * * * * * * * * * * * * * * * * * * * * * * * * * * * * * * * //

dimensions      [0 0 -1 0 0 0 0];

internalField   nonuniform List<scalar> 
114955
(
9.77614
9.7661
9.76198
9.7626
9.76086
9.7618
9.75979
9.77156
9.76659
9.76217
9.76162
9.76213
9.76089
9.76089
9.7778
9.76748
9.76121
9.76216
9.75978
9.76016
9.75916
9.77162
9.76761
9.762
9.77144
9.79355
9.76215
9.76006
9.85593
9.8222
9.81612
9.86161
9.78956
9.77557
9.80284
9.78199
9.77034
9.76382
9.78742
9.76644
9.76201
9.90725
9.9429
9.79883
9.77966
9.76889
9.76428
9.7641
9.77062
9.77132
9.76314
9.83814
9.79552
9.7845
9.80395
9.78306
9.76717
9.7739
9.81091
9.76342
9.76555
9.82161
9.77207
9.78232
9.85717
9.90755
9.95957
9.88181
9.77508
9.79897
9.83552
9.97221
10.0392
9.78214
9.78926
9.7799
9.81624
9.95306
10.0335
9.78225
9.78208
9.7735
9.78231
9.8431
9.86263
10.0286
9.91395
9.83088
9.77622
9.78071
9.76799
9.76248
9.76017
9.75931
9.75917
9.89146
9.84164
9.81994
9.77391
9.78742
9.81927
9.76973
9.76202
9.76074
10.042
9.88671
9.84719
9.84743
9.99028
9.98445
9.95731
9.89821
9.78203
9.76566
10.0041
10.012
9.93354
10.0141
9.80495
9.81274
9.9973
9.9347
9.85438
9.77555
9.94912
10.0045
10.295
9.8044
9.79846
9.7932
9.91091
9.9276
9.81564
9.84185
9.89877
10.0003
9.92747
10.009
9.81622
9.80505
9.93283
10.0467
10.108
9.99841
9.84714
9.82519
9.81037
9.86174
10.0746
9.85605
10.328
12.0912
16.3242
14.4389
9.83212
9.82874
9.84012
9.95237
9.97586
10.1967
11.4799
16.9408
11.5915
11.4848
9.80607
9.7936
9.82855
9.93694
10.2779
11.478
16.2496
11.1064
10.344
9.78751
9.77885
9.85714
9.90043
10.1871
11.7348
16.1177
10.1947
10.3892
10.0852
10.0224
9.90668
9.78898
9.8009
9.79667
9.768
9.76344
9.76058
10.4552
10.6066
9.9578
10.0096
10.064
10.2469
10.1136
10.0719
9.93608
9.78952
9.76884
10.2643
10.1904
10.0476
10.1808
12.1374
16.5716
17.1286
12.4175
10.4875
9.95584
9.79944
10.463
10.8267
10.4892
12.1052
16.4529
11.9819
11.127
16.6966
11.8018
10.3479
9.93072
10.2001
12.1677
19.0569
11.4762
10.933
10.3586
13.0201
11.3671
10.2745
9.91922
10.0099
10.5391
12.6892
16.0943
12.0984
10.2153
10.7814
15.7514
14.4781
15.1976
9.86588
9.9475
10.0519
12.2993
16.6607
10.8083
10.5277
12.3476
11.8927
11.4493
9.85235
9.82936
9.86731
10.3381
12.258
13.9494
12.0238
13.0536
14.9742
10.6921
9.84882
9.92179
10.3578
11.0985
16.6205
13.1567
16.7227
10.5073
10.2338
9.78344
9.86008
10.1975
11.207
15.4342
12.0287
15.2342
9.83669
9.91539
9.8401
9.7804
9.77699
9.76551
9.76236
9.76158
9.76
9.75961
10.4349
10.1007
10.0558
9.86961
9.78867
9.8083
9.79593
9.76547
9.76388
9.75996
11.4977
12.6953
17.4114
15.2002
11.9903
10.3538
10.0379
9.90402
9.83823
9.7742
9.76581
10.9532
18.6997
16.5558
14.2389
16.8446
15.9795
12.0337
10.3761
9.93369
9.85431
9.77672
10.9625
16.5872
14.7859
12.7917
13.2016
12.3897
13.5526
17.4194
11.7333
10.2125
9.8675
10.8352
16.8507
14.1296
14.8194
12.7765
11.0471
12.7651
17.9825
20.5107
11.5189
10.2797
11.1106
12.2956
17.152
18.2954
11.4371
10.2879
10.3078
11.1662
13.568
17.7676
11.7741
10.166
11.9534
17.5932
18.4899
10.5306
10.2128
10.3992
12.9343
12.2351
13.6166
9.97619
10.5328
12.1857
16.7938
18.8455
10.4311
10.4336
13.9315
11.9888
11.0374
9.84393
9.88379
10.0344
12.0634
18.0986
15.2589
16.2471
36.268
30.2167
34.9508
9.8393
9.94443
10.3423
11.5449
16.1465
17.0782
30.4565
18.4207
16.1145
9.8423
9.94776
10.2686
15.7046
12.713
25.8829
27.4362
10.0147
10.0011
9.87722
9.82481
9.79693
9.77468
9.79033
9.7728
9.76401
9.76061
9.75983
10.5001
10.6618
9.94633
10.0013
10.0341
9.99466
9.93446
9.83696
9.7816
9.76455
9.76111
11.4455
18.2855
16.8971
15.0235
17.3847
16.009
12.0888
10.4251
9.85959
9.78492
9.76879
10.6645
16.9792
23.8906
45.7483
12.7946
13.2482
19.4927
11.8377
10.1481
9.83355
9.82524
10.127
14.987
42.3046
34.6395
37.2007
19.2855
17.4465
16.5346
11.155
9.95542
9.95208
10.5111
17.1336
20.4562
32.8724
34.2228
43.9901
34.8635
14.7278
15.7955
11.2834
10.0497
11.0839
17.2027
16.4176
19.8125
37.668
59.699
85.5778
53.0223
15.5969
14.3442
10.9477
11.7988
16.7458
19.0624
37.4245
71.5308
72.7979
79.085
35.6127
11.8693
12.741
10.0833
11.4067
18.9349
17.1165
37.311
30.9947
72.3417
72.9693
39.8278
29.4172
9.94215
10.424
11.6507
17.0312
16.189
35.4879
68.2235
66.5807
75.8325
74.7612
11.5706
19.5664
16.7452
34.5365
65.5845
299.039
10.2696
13.5035
12.1832
26.9412
151.167
10.0102
10.0114
9.88972
9.83133
9.8063
9.77703
9.78528
9.77138
9.76467
9.76109
9.76036
10.1143
10.4931
10.6635
9.94079
9.9638
9.88484
10.035
9.98597
9.85554
9.78614
9.76932
9.76234
10.2261
11.4829
16.3123
15.0927
15.7399
13.7515
19.5229
12.0617
10.3683
9.86728
9.7915
9.77724
9.91836
10.732
16.3276
43.5223
36.9709
54.0998
12.799
21.1628
11.7799
10.1032
9.84588
9.82901
9.8895
10.2305
11.6308
20.0993
145.988
80.5169
46.8971
13.358
19.1468
11.2146
10.0462
10.0432
10.5546
11.7345
39.7877
84.4042
383.743
76.2141
26.7149
14.9727
20.4605
11.2616
10.2086
11.1303
17.364
13.7861
39.544
79.4322
366.268
146.434
45.9073
13.4844
19.2566
11.0168
11.7575
17.7319
16.2211
32.0866
76.4849
102.968
27.5859
15.2162
13.5574
10.0806
11.4696
20.4732
15.8632
37.5677
69.3608
242.369
133.792
35.193
9.94899
10.449
11.6001
18.1358
15.327
24.0102
78.7322
197.821
11.5285
20.9768
17.6191
20.4235
132.808
10.2054
11.814
12.2632
9.87595
9.8375
9.8837
9.83369
9.80412
9.82959
9.77439
9.76222
9.75975
9.75932
9.75923
10.0194
9.9528
10.1962
10.456
10.0719
10.0295
10.0633
10.0524
9.88174
9.79135
9.76653
9.76062
9.7594
10.0796
10.3412
11.512
12.8186
16.1237
15.302
18.7968
12.6186
10.4039
9.88194
9.78664
9.76697
9.76169
10.0657
10.2459
10.9464
17.6539
17.384
12.0816
15.7004
19.9102
12.068
10.1914
9.84112
9.77375
9.76676
10.0367
10.1074
10.9502
16.8081
24.5227
32.0146
48.7707
13.0409
19.7119
12.0258
10.0881
9.84867
9.79429
10.057
10.1902
10.8713
16.8695
13.8286
37.1656
28.5077
46.3914
12.5208
21.8031
11.93
10.0746
10.0049
10.0612
10.2595
11.1389
12.3016
17.7586
18.2457
31.7944
26.4117
32.5822
16.0797
20.5409
11.4354
9.99463
10.0134
9.9158
10.0428
10.1959
11.9515
23.6844
20.9732
27.4156
18.9922
30.6689
15.8777
15.4187
12.4703
10.0169
9.93806
9.90352
9.96819
10.5
12.161
18.7084
15.03
35.036
19.516
32.7004
32.2075
9.84361
9.89837
10.0754
12.0698
22.4268
17.9947
24.0258
24.6847
88.6821
10.9536
14.286
13.7877
45.3117
9.86425
9.84981
9.81845
9.79883
9.78379
9.76992
9.7653
9.76198
9.76099
9.75984
9.75973
10.0198
9.92393
9.86693
9.83645
9.97162
9.89735
9.83707
9.90861
9.79377
9.76668
9.76102
9.76042
9.75949
10.0213
9.94899
10.1869
10.5173
10.2029
10.1894
10.3043
10.2263
9.91507
9.79988
9.77152
9.76342
9.76279
10.0748
10.1838
10.972
12.0749
16.1778
15.2684
18.5752
12.6792
10.2209
9.81428
9.77061
9.76843
9.76766
10.0577
10.0886
10.7164
11.651
13.9703
13.1504
11.4864
17.2892
12.2502
10.1554
9.82386
9.77302
9.77392
10.0718
10.1842
10.9048
11.9897
15.8336
13.2661
10.8919
11.3399
17.4431
12.1841
10.0983
9.8329
9.78455
10.0149
9.9125
10.0729
10.2761
12.0792
20.6644
11.3596
10.9823
11.1867
17.6199
11.8706
10.1486
9.9853
10.0251
9.94359
9.89042
9.93734
10.567
12.3847
16.7095
11.7795
10.6029
11.1899
14.1536
14.7522
13.678
10.0074
9.89789
9.83741
9.83827
9.92525
10.0908
12.2579
18.8671
12.2348
10.9488
12.5892
17.1131
9.8413
9.83122
9.85459
10.2315
11.7293
13.56
11.3194
14.2968
37.6109
10.4162
12.4
12.8769
35.973
18.9284
9.84634
9.81348
9.80656
9.79407
9.77807
9.77723
9.76594
9.76211
9.76019
9.75957
9.75918
10.0127
9.90773
9.86667
9.85168
9.81586
9.79708
9.78532
9.76897
9.76588
9.76321
9.76153
9.75977
9.75927
10.0176
9.92311
9.86636
9.83429
9.97257
9.89741
9.83986
9.90295
9.79852
9.76858
9.76243
9.76077
9.75968
30.9404
10.2355
10.0114
9.92422
10.029
10.1226
10.0296
10.031
10.0563
9.98459
9.82585
9.78652
9.77073
9.7637
9.76161
30.9404
10.234
10.0125
9.91625
9.96717
10.1557
9.95068
9.91437
9.8706
10.0071
9.83227
9.80059
9.7734
9.76917
9.76803
30.9405
10.2362
10.0099
9.92177
10.0265
10.1275
9.99498
9.94038
9.85569
9.82028
10.0191
9.89322
9.80983
9.78116
9.77658
10.0175
9.92726
9.88963
9.90728
10.0792
10.2241
9.83785
9.80565
9.80722
9.9999
9.89395
9.8163
9.80136
10.0094
9.90597
9.85625
9.86234
9.94507
9.95693
10.0041
9.83518
9.80845
9.86877
9.98109
10.1109
10.0145
10.0116
9.91038
9.8515
9.83125
9.81284
9.815
9.86129
10.0578
9.8783
10.1751
12.0799
15.3496
13.2067
9.82364
9.81984
9.84585
9.9286
9.99858
10.1696
11.6644
15.7105
12.7284
11.8582
10.0735
11.0319
15.9812
12.6841
9.84455
9.81806
9.79905
9.78561
9.77423
9.76739
9.76256
9.76136
9.76018
9.75966
9.75948
9.75867
10.0132
9.90518
9.84258
9.81133
9.80687
9.79387
9.77707
9.77636
9.76621
9.76257
9.76023
9.75897
9.75907
9.75942
30.9398
10.2336
10.014
9.9085
9.85749
9.84441
9.82254
9.80091
9.78425
9.76975
9.7646
9.76188
9.76083
9.75959
9.75965
30.9399
10.2343
10.018
9.91919
9.84188
9.81545
9.89563
9.84034
9.80092
9.81868
9.78087
9.76573
9.76106
9.76015
9.75911
30.94
10.234
10.0162
9.91379
9.84121
9.81002
9.89735
9.85686
9.80011
9.77437
9.77358
9.76637
9.76247
9.75984
9.75991
30.94
10.2354
10.0173
9.91962
9.84073
9.81053
9.91443
9.86013
9.78967
9.77186
9.76747
9.78947
9.76952
9.76228
9.75902
30.9401
10.2354
10.0117
9.90629
9.85156
9.86494
9.90268
9.83321
9.79103
9.77344
9.76771
9.76189
9.77511
9.76517
9.76269
10.0126
9.90948
9.84305
9.81586
9.79679
9.79743
9.80766
9.78615
9.7708
9.78316
9.79533
9.76418
9.76164
10.0092
9.90329
9.83967
9.82304
9.8135
9.82233
9.8226
9.77549
9.78059
9.82131
9.85828
9.9634
9.88162
9.81609
9.79292
9.78099
9.77331
9.7917
9.86326
9.88647
10.0183
9.78422
9.79563
9.81405
9.9035
10.013
9.78256
9.84202
9.81219
9.79451
9.78277
9.77262
9.76856
9.76396
9.76183
9.76033
9.75969
9.75868
9.7594
30.9397
10.2344
10.0125
9.9037
9.84595
9.81825
9.79742
9.78395
9.77349
9.76708
9.76309
9.76159
9.76031
9.75957
9.75925
9.7586
30.9398
10.2345
10.0129
9.90479
9.84592
9.81601
9.80539
9.79054
9.77735
9.77454
9.76576
9.76235
9.76024
9.75958
9.75856
9.75937
30.9399
10.2353
10.0131
9.9066
9.8586
9.83814
9.80996
9.79101
9.7772
9.76818
9.76352
9.76202
9.76078
9.75976
9.75945
9.75895
9.76071
30.94
10.2353
10.0129
9.90619
9.85436
9.83717
9.80651
9.79174
9.77834
9.77443
9.76592
9.76273
9.76033
9.76007
9.75904
9.76015
9.76
30.94
10.2363
10.0125
9.90674
9.85795
9.8399
9.80827
9.79133
9.77561
9.76873
9.76519
9.76168
9.76085
9.7601
9.76002
9.75958
9.76157
30.94
10.2367
10.0121
9.90628
9.84756
9.82174
9.80741
9.79685
9.77631
9.77255
9.76622
9.76608
9.76223
9.76129
9.75956
9.76141
9.75994
10.0108
9.90483
9.84413
9.81988
9.80423
9.79147
9.77693
9.77202
9.76363
9.76139
9.76093
9.76105
9.75934
9.75955
9.76187
10.0102
9.90488
9.84112
9.81497
9.79344
9.78242
9.77662
9.77745
9.7678
9.77621
9.78676
9.76099
9.75997
9.76023
9.76209
9.81448
9.79504
9.78906
9.78096
9.77959
9.77068
9.77778
9.7638
9.76316
9.75966
9.75967
9.76641
30.9397
10.2346
30.9398
10.2348
10.0142
9.90422
9.84292
9.81259
9.79357
9.78097
9.77166
9.76666
9.76295
9.76147
9.7602
9.75969
9.75906
9.75885
30.9398
10.235
10.0143
9.90449
9.84274
9.81165
9.79483
9.78225
9.77223
9.76808
9.76393
9.76186
9.76031
9.75961
9.75849
9.75931
30.9399
10.2353
10.0145
9.90547
9.84473
9.81523
9.79821
9.78383
9.77346
9.76694
9.76251
9.76115
9.75992
9.75946
9.75928
9.75851
30.9399
10.2358
10.0144
9.90588
9.84225
9.81052
9.80291
9.78675
9.77505
9.77111
9.76523
9.7625
9.7604
9.75936
9.75861
9.75922
9.75942
9.75995
30.94
10.236
10.0143
9.90621
9.84344
9.81383
9.80516
9.78867
9.77525
9.76767
9.76209
9.76091
9.75962
9.7593
9.75915
9.7586
9.76025
9.76123
30.94
10.2368
10.0139
9.90631
9.84183
9.81069
9.80376
9.78728
9.77484
9.76874
9.76425
9.76363
9.7608
9.75921
9.75868
9.75907
9.75935
9.75976
30.9401
10.2372
10.0134
9.90636
9.84436
9.81846
9.80616
9.78749
9.77546
9.76802
9.76333
9.7614
9.75949
9.75951
9.75907
9.75892
9.76107
9.76023
30.9401
10.2381
10.0129
9.90627
9.84158
9.81253
9.79329
9.78089
9.77478
9.76865
9.7646
9.76302
9.76093
9.75965
9.75844
9.75898
9.75951
9.76053
10.0121
9.90632
9.84163
9.81545
9.79667
9.78599
9.77786
9.76785
9.7638
9.76279
9.76016
9.76135
9.75915
9.75891
9.76187
9.76034
9.81289
9.79115
9.78008
9.77172
9.76708
9.76629
9.76425
9.76176
9.75988
9.75868
9.75853
9.76018
30.94
10.2366
30.94
10.2366
30.9401
10.2368
10.0178
9.90658
9.84548
9.8125
9.79304
9.78004
9.77114
9.76652
9.76334
9.76155
9.76028
9.75967
9.75878
9.75917
30.9401
10.2371
10.018
9.9071
9.84656
9.81384
9.79405
9.78055
9.77148
9.76648
9.76321
9.76146
9.76019
9.75956
9.75878
9.75897
30.9402
10.2373
10.0179
9.90747
9.84692
9.81412
9.79491
9.78125
9.77174
9.76687
9.76348
9.76152
9.76017
9.75955
9.75863
9.75916
30.9402
10.2379
10.0181
9.90826
9.84877
9.8167
9.79636
9.78179
9.77226
9.76667
9.7632
9.76141
9.76008
9.75947
9.75886
9.75893
9.75973
9.76032
30.9403
10.2381
10.0177
9.9084
9.84825
9.81685
9.79608
9.78194
9.77207
9.7668
9.76351
9.76159
9.76016
9.7595
9.7585
9.75916
9.75953
9.76011
30.9403
10.2388
10.0176
9.90878
9.84839
9.8171
9.79625
9.78219
9.77232
9.767
9.76368
9.76142
9.75997
9.7594
9.75887
9.75902
9.75965
9.76016
30.9403
10.2393
10.0169
9.90857
9.84671
9.81542
9.79503
9.78206
9.77227
9.76755
9.76411
9.76184
9.76043
9.75945
9.75845
9.75906
9.75949
9.76057
30.9404
10.2401
10.0164
9.90879
9.84553
9.8149
9.79435
9.78224
9.7727
9.76791
9.7639
9.76125
9.76008
9.7594
9.7587
9.75907
9.75959
9.76015
10.0156
9.90885
9.8444
9.81401
9.79269
9.78119
9.77241
9.76867
9.76528
9.76247
9.76143
9.75913
9.75846
9.75888
9.75952
9.7615
9.81361
9.79204
9.78195
9.77318
9.76927
9.76469
9.76113
9.76026
9.75947
9.7586
9.75908
9.75978
30.9406
10.2371
30.9407
10.2371
30.9407
10.2374
10.0309
9.91489
9.85225
9.81409
9.79384
9.77979
9.77081
9.76616
9.76297
9.76139
9.76013
9.75961
9.75895
9.75903
30.9407
10.2375
10.0309
9.91506
9.85243
9.81417
9.79421
9.78008
9.77099
9.76641
9.76319
9.76146
9.76013
9.75956
9.75874
9.75908
30.9408
10.2378
10.031
9.91558
9.85301
9.81501
9.79502
9.78047
9.77118
9.76624
9.76289
9.76129
9.75998
9.75949
9.75891
9.75885
30.9408
10.2382
10.0308
9.91563
9.85274
9.81445
9.79557
9.78083
9.77149
9.76682
9.7634
9.76157
9.76009
9.7595
9.75861
9.75912
9.75953
9.76007
30.9409
10.2386
10.0306
9.91614
9.85308
9.81545
9.79607
9.78124
9.77154
9.76647
9.7629
9.76128
9.75985
9.7594
9.7589
9.75868
9.75962
9.76025
30.9409
10.2392
10.0302
9.91615
9.85247
9.81469
9.79555
9.78095
9.7716
9.76681
9.76338
9.76168
9.76007
9.75946
9.75856
9.75901
9.75944
9.75993
30.9409
10.2397
10.0299
9.91679
9.85283
9.81613
9.796
9.7814
9.77195
9.76688
9.76322
9.76142
9.75976
9.75937
9.7588
9.75866
9.75963
9.76015
30.941
10.2405
10.0293
9.91669
9.85145
9.81482
9.7937
9.78026
9.77169
9.76698
9.7634
9.76165
9.76
9.75941
9.75862
9.75881
9.75945
9.76003
30.941
10.2412
10.0287
9.91727
9.85128
9.81569
9.79415
9.7814
9.77258
9.76734
9.76345
9.76162
9.75981
9.75942
9.7587
9.75868
9.75954
9.76013
9.81485
9.79261
9.78044
9.77164
9.76718
9.76344
9.76176
9.75999
9.75938
9.75867
9.75866
9.75948
30.9416
10.2428
30.9416
10.2428
30.9417
10.2429
30.9417
10.243
30.9417
10.2432
10.0443
9.92007
9.86026
9.81608
9.79553
9.78028
9.77095
9.7662
9.76303
9.76138
9.76009
9.75955
9.75895
9.75918
30.9417
10.2434
10.0443
9.92044
9.86065
9.81647
9.79589
9.78046
9.77106
9.76624
9.76303
9.76134
9.76003
9.75949
9.75887
9.75914
30.9418
10.2437
10.0442
9.92079
9.86092
9.81679
9.79608
9.78058
9.77106
9.76622
9.76307
9.76134
9.76002
9.75948
9.75885
9.75909
30.9418
10.244
10.0442
9.9212
9.8613
9.81733
9.7965
9.78081
9.7713
9.76636
9.7631
9.76132
9.75998
9.75942
9.75883
9.7591
9.75957
9.76012
30.9419
10.2444
10.0439
9.92151
9.86121
9.81756
9.7964
9.78083
9.77124
9.76635
9.76316
9.76134
9.76
9.75942
9.75878
9.75902
9.75949
9.76007
30.9419
10.245
10.0436
9.92176
9.861
9.81761
9.79633
9.78097
9.77149
9.76664
9.76328
9.76134
9.75994
9.75936
9.75879
9.75906
9.75948
9.76005
30.9419
10.2456
10.043
9.92197
9.86049
9.81755
9.7959
9.78098
9.77155
9.76679
9.76338
9.76137
9.76002
9.75936
9.75872
9.75898
9.75944
9.76013
30.942
10.2463
10.0425
9.92218
9.85972
9.81731
9.79545
9.78116
9.77182
9.76713
9.76345
9.76132
9.75996
9.75932
9.75873
9.75901
9.7594
9.76003
30.942
10.2471
10.0417
9.9225
9.85912
9.81738
9.79507
9.78128
9.77196
9.76741
9.76375
9.76145
9.7601
9.75927
9.75867
9.75897
9.75937
9.76018
9.81722
9.79459
9.78148
9.7722
9.76773
9.76372
9.7613
9.75997
9.75927
9.75866
9.75899
9.75935
30.9438
10.2543
30.9438
10.2544
30.9438
10.2544
30.9439
10.2545
30.9439
10.2546
10.1261
9.9508
9.87939
9.82148
9.79568
9.78016
9.77003
9.76595
9.7626
9.76131
9.76002
9.75961
9.75926
9.75925
30.9439
10.2548
10.1261
9.95107
9.87956
9.82162
9.79581
9.78025
9.77009
9.766
9.76263
9.76129
9.75998
9.75957
9.7592
9.75921
30.9439
10.2549
10.1261
9.95146
9.87976
9.82191
9.796
9.78036
9.77012
9.766
9.76259
9.76126
9.75995
9.75955
9.7592
9.75918
30.944
10.2551
10.1259
9.95171
9.87974
9.82193
9.7961
9.78046
9.77023
9.76615
9.76269
9.7613
9.75995
9.75953
9.75914
9.75917
9.75958
9.76009
30.944
10.2554
10.1257
9.95213
9.87973
9.82223
9.79612
9.78057
9.77026
9.76617
9.76263
9.76126
9.7599
9.75949
9.75914
9.7591
9.75954
9.76009
30.944
10.2557
10.1253
9.95234
9.87937
9.82211
9.79593
9.78058
9.77037
9.76634
9.76272
9.7613
9.75992
9.75948
9.75909
9.75911
9.7595
9.76003
30.9441
10.256
10.1248
9.95281
9.87917
9.82246
9.7959
9.78078
9.77053
9.76648
9.76271
9.76127
9.75986
9.75944
9.75905
9.75903
9.7595
9.76006
30.9441
10.2565
10.124
9.95295
9.87837
9.82218
9.79533
9.78068
9.77057
9.76661
9.76274
9.76129
9.75989
9.75943
9.75905
9.75904
9.75946
9.76002
30.9442
10.2569
10.1233
9.95345
9.87793
9.82247
9.79533
9.78109
9.77086
9.76686
9.76279
9.76128
9.75984
9.75939
9.75896
9.75897
9.75944
9.76003
9.82227
9.79489
9.78108
9.77077
9.76692
9.76276
9.76128
9.75986
9.75937
9.75901
9.75897
9.75943
30.9457
10.293
30.9457
10.293
30.9457
10.293
30.9457
10.2931
30.9458
10.2931
10.166
9.96651
9.89677
9.8371
9.80249
9.78557
9.77245
9.76794
9.76367
9.76216
9.7607
9.76026
9.7599
9.75998
30.9458
10.2932
10.166
9.96684
9.89692
9.83728
9.80258
9.78562
9.77246
9.76796
9.76365
9.76212
9.76066
9.76021
9.75986
9.75994
30.9458
10.2934
10.166
9.96721
9.89705
9.83747
9.80262
9.78567
9.77246
9.76796
9.76366
9.76211
9.76064
9.7602
9.75984
9.75992
30.9458
10.2936
10.1659
9.9676
9.89712
9.8377
9.8027
9.78578
9.77257
9.76805
9.76366
9.76208
9.76062
9.76017
9.75982
9.75991
9.76025
9.76079
30.9459
10.2939
10.1657
9.96802
9.89706
9.83789
9.80265
9.78586
9.77261
9.76809
9.76366
9.76206
9.76061
9.76016
9.7598
9.75989
9.76019
9.76074
30.9459
10.2943
10.1654
9.9684
9.89686
9.83803
9.8026
9.78602
9.77277
9.76822
9.76368
9.76204
9.76058
9.76013
9.75978
9.75987
9.76017
9.76071
30.946
10.2948
10.1649
9.96886
9.89662
9.83823
9.80249
9.78619
9.77288
9.76831
9.76368
9.76202
9.76057
9.76011
9.75975
9.75985
9.76014
9.76071
30.946
10.2955
10.1642
9.96926
9.89617
9.83827
9.80233
9.78645
9.77306
9.76847
9.76369
9.762
9.76055
9.76008
9.75973
9.75983
9.76011
9.76067
30.9461
10.2962
10.1635
9.96987
9.89578
9.83849
9.80229
9.78678
9.77322
9.76861
9.76372
9.76198
9.76054
9.76005
9.7597
9.75981
9.76008
9.76067
9.83859
9.80219
9.78707
9.77335
9.76875
9.76371
9.76195
9.76052
9.76003
9.75967
9.7598
9.76006
30.9537
10.9719
30.9538
10.972
30.9538
10.9721
30.9538
10.9723
30.9538
10.9726
10.6534
10.0666
9.89832
9.83886
9.79508
9.78286
9.7719
9.76868
9.766
9.76472
9.76401
9.76357
9.76345
9.76349
30.9538
10.9729
10.6536
10.0669
9.89837
9.83893
9.7951
9.78286
9.77188
9.76867
9.76597
9.76468
9.76397
9.76353
9.76341
9.76345
30.9539
10.9733
10.6538
10.0673
9.89841
9.83904
9.79514
9.78289
9.77188
9.76868
9.76595
9.76466
9.76395
9.76352
9.7634
9.76344
30.9539
10.9739
10.6539
10.0676
9.89839
9.83912
9.79517
9.78295
9.77191
9.7687
9.76594
9.76464
9.76393
9.7635
9.76338
9.76342
9.76351
9.76413
30.9539
10.9745
10.6538
10.0681
9.89833
9.83923
9.79516
9.78303
9.77194
9.76871
9.76591
9.76462
9.76391
9.76348
9.76337
9.7634
9.76347
9.76408
30.9539
10.9752
10.6536
10.0685
9.89816
9.83929
9.79512
9.78312
9.77199
9.76874
9.76589
9.76459
9.76389
9.76346
9.76335
9.76338
9.76345
9.76405
30.954
10.9761
10.6532
10.069
9.89798
9.8394
9.79507
9.78326
9.77205
9.76877
9.76587
9.76456
9.76386
9.76343
9.76334
9.76336
9.76343
9.76403
30.954
10.9771
10.6526
10.0695
9.89759
9.83935
9.79492
9.78338
9.77211
9.7688
9.76584
9.76454
9.76384
9.76341
9.76332
9.76334
9.76341
9.764
30.954
10.9782
10.6519
10.0701
9.89723
9.83944
9.79487
9.78362
9.77219
9.76885
9.76582
9.76451
9.76382
9.76339
9.76331
9.76331
9.76339
9.76398
9.83946
9.79476
9.78379
9.7722
9.76886
9.76579
9.76448
9.7638
9.76337
9.76329
9.76329
9.76338
30.875
12.1143
30.875
12.1156
10.6413
10.5867
9.99291
9.95211
9.83797
30.875
12.1159
10.6415
10.5868
9.99299
9.95212
9.838
9.83296
9.80491
9.80668
30.875
12.1159
10.6416
10.5869
9.99307
9.95216
9.83803
9.83293
9.80491
9.80664
9.798
9.79931
9.797
9.79792
30.8751
12.1163
10.6428
10.5871
9.99311
9.95222
9.83801
9.83291
9.80489
9.80658
9.79795
9.79925
9.79696
9.79788
9.79731
9.79778
30.8751
12.1165
10.6429
10.5873
9.99323
9.95232
9.83808
9.83291
9.80493
9.80654
9.79795
9.79921
9.79697
9.79786
9.7973
9.79775
9.79721
30.8751
12.117
10.6431
10.5875
9.99336
9.95244
9.83817
9.83292
9.80498
9.80649
9.79795
9.79917
9.79698
9.79785
9.7973
9.79773
9.79721
9.79841
30.8751
12.1174
10.6431
10.5878
9.99346
9.95259
9.83828
9.83295
9.80505
9.80643
9.79795
9.79912
9.797
9.79783
9.79731
9.79772
9.7972
9.79835
30.8752
12.1179
10.6432
10.588
9.99355
9.95276
9.83839
9.83298
9.80512
9.80637
9.79795
9.79907
9.79701
9.79781
9.79732
9.7977
9.79721
9.79831
9.79693
30.8752
12.1185
10.6432
10.5883
9.99358
9.95295
9.83854
9.83304
9.80522
9.80631
9.79796
9.79901
9.79704
9.79779
9.79733
9.79769
9.79722
9.79828
9.79692
30.8752
12.1191
10.6432
10.5887
9.99359
9.95317
9.83872
9.83308
9.8053
9.80623
9.79796
9.79896
9.79706
9.79777
9.79735
9.79767
9.79724
9.79825
9.79695
30.8753
12.1199
10.6431
10.5891
9.99354
9.95343
9.83897
9.8331
9.80535
9.80614
9.79797
9.79891
9.79709
9.79776
9.79736
9.79766
9.79726
9.79822
9.79696
30.8753
9.8054
9.80604
9.79797
9.79885
9.79712
9.79774
9.79738
9.79766
9.79728
9.79819
9.80596
9.79797
9.7988
9.79716
9.79774
9.7974
9.79766
9.7973
29.764
18.5446
29.764
18.5441
27.8935
14.4477
16.5781
11.4003
12.0938
29.764
18.5439
27.8941
14.4468
16.5768
11.3985
12.0918
10.5282
10.5167
10.4621
29.764
18.5425
27.8949
14.4453
16.5751
11.3961
12.0885
10.5275
10.5162
10.4617
10.4638
10.4553
10.4554
10.454
29.764
18.5421
27.8959
14.4436
16.5727
11.3929
12.0841
10.5266
10.5155
10.4612
10.4633
10.4549
10.4549
10.4535
10.453
10.4528
29.764
18.5406
27.8971
14.4416
16.5701
11.3893
12.0788
10.5253
10.5146
10.4604
10.4627
10.4544
10.4542
10.4529
10.4524
10.4522
10.4522
29.764
18.5394
27.8986
14.4395
16.5672
11.3854
12.0728
10.5238
10.5136
10.4596
10.4619
10.4538
10.4535
10.4522
10.4516
10.4514
10.4513
10.4509
29.764
18.5382
27.9006
14.4374
16.5643
11.3813
12.066
10.5221
10.5123
10.4588
10.461
10.453
10.4526
10.4514
10.4507
10.4505
10.4504
10.4499
29.764
18.5369
27.903
14.4352
16.5613
11.3769
12.0588
10.5202
10.5108
10.4578
10.4601
10.4522
10.4516
10.4504
10.4498
10.4495
10.4493
10.4489
10.4507
29.7641
18.5356
27.9059
14.4331
16.5584
11.3725
12.051
10.5181
10.5091
10.4567
10.4589
10.4513
10.4504
10.4494
10.4486
10.4483
10.4481
10.4477
10.4493
29.7641
18.5343
27.9093
14.4307
16.555
11.3676
12.0418
10.5157
10.5073
10.4556
10.4576
10.4502
10.4491
10.4481
10.4473
10.447
10.4467
10.4463
10.4477
29.7641
18.5329
27.9131
14.4283
16.5513
11.3627
12.0314
10.5129
10.5054
10.4544
10.4561
10.449
10.4476
10.4468
10.446
10.4455
10.4453
10.4448
10.446
29.7642
10.5032
10.4531
10.4544
10.4476
10.4462
10.4453
10.4445
10.444
10.4437
10.4431
10.4517
10.4525
10.4462
10.4447
10.4438
10.443
10.4424
10.4421
33.8151
36.1373
23.9939
18.7767
84.9794
71.7639
149.315
16.9396
80.1178
22.456
34.553
23.2698
212.583
147.984
18.611
28.2352
139.157
43.7271
35.8803
40.6823
161.953
100.076
90.3299
247.867
34.9359
32.721
30.116
246.736
90.7282
84.1381
327.863
99.2361
79.7208
96.3722
329.359
142.178
96.853
99.7036
58.633
93.0942
109.119
66.2588
101.497
70.0738
81.5283
156.874
100.093
29.5603
70.8377
77.9893
135.748
43.8878
179.795
19.052
75.4183
33.5645
85.6754
72.5684
26.5472
78.299
72.7226
71.0462
218.467
186.31
123.582
79.4899
254.331
159.938
66.2437
259.098
63.4609
166.618
110.246
55.4038
180.312
147.186
49.599
113.422
86.5078
384.126
19.5174
30.8517
26.1777
22.3483
106.237
87.0507
365.574
15.691
31.321
20.2737
21.3697
134.325
105.993
17.9162
97.7108
62.194
101.844
119.914
75.3984
234.303
78.3994
23.4164
37.0021
92.5706
147.192
112.028
66.5237
43.6626
53.5057
83.8373
32.4917
164.879
69.0722
26.6314
36.7124
86.6452
230.431
144.567
71.2289
87.5946
62.5425
115.318
86.7719
76.5751
34.1201
36.7439
32.9345
21.2371
13.9643
64.3449
37.916
35.0252
27.2638
29.2228
36.1012
29.8684
57.6508
18.8732
29.764
18.8731
39.7894
28.5908
39.7894
28.5908
27.1345
18.5445
27.1301
29.7006
29.7155
29.7006
29.7155
18.8738
29.764
18.8727
39.7894
28.5908
39.7894
28.5908
27.1781
18.545
27.1303
29.7006
29.7155
29.7006
29.7155
15.4395
27.8885
15.4405
29.875
29.7144
29.875
29.7144
17.847
14.4528
17.8392
29.711
29.6982
29.711
29.6982
11.2464
16.5788
11.2462
29.7534
29.7016
29.7534
29.7016
13.3296
11.4006
13.3288
29.6931
29.6877
29.6931
29.6877
10.938
12.094
10.9386
29.7174
29.6903
29.7174
29.6903
18.8743
29.764
18.8721
39.7894
28.5908
39.7894
28.5908
27.1774
18.546
27.1305
29.7006
29.7155
29.7006
29.7155
15.4395
27.8887
15.4422
29.875
29.7144
29.875
29.7144
17.846
14.4518
17.839
29.711
29.6982
29.711
29.6982
11.2458
16.5768
11.2466
29.7534
29.7016
29.7534
29.7016
13.3276
11.3982
13.3279
29.6931
29.6877
29.6931
29.6877
10.9378
12.0909
10.9387
29.7174
29.6903
29.7174
29.6903
11.548
10.5273
11.55
29.6917
29.6865
29.6917
29.6865
11.0285
10.5157
11.0295
29.7053
29.6863
29.7053
29.6863
11.264
10.4613
11.2652
29.6936
29.6859
29.6936
29.6859
18.8747
29.764
18.8714
39.7894
28.5908
39.7894
28.5908
27.1759
18.546
27.1302
29.7006
29.7155
29.7006
29.7154
15.439
27.8894
15.4438
29.875
29.7144
29.875
29.7144
17.843
14.4502
17.8375
29.711
29.6982
29.711
29.6982
11.2449
16.5745
11.2469
29.7534
29.7016
29.7534
29.7016
13.3237
11.3952
13.3256
29.6931
29.6877
29.6931
29.6877
10.937
12.0869
10.9387
29.7174
29.6902
29.7174
29.6903
11.5446
10.5261
11.5477
29.6917
29.6865
29.6917
29.6865
11.0281
10.5147
11.0296
29.7053
29.6863
29.7053
29.6863
11.2632
10.4605
11.2646
29.6937
29.6859
29.6936
29.6859
11.1044
10.4628
11.1056
29.6997
29.6857
29.6997
29.6857
11.1909
10.4546
11.1919
29.6958
29.6857
29.6958
29.6857
11.1433
10.4548
11.1439
29.6978
29.6857
29.6978
29.6857
11.1689
10.4537
11.1694
29.6967
29.6857
29.6967
29.6857
18.875
29.764
18.8706
39.7894
28.5908
39.7894
28.5908
27.1749
18.5474
27.1306
29.7006
29.7154
29.7007
29.7154
15.4387
27.8905
15.4458
29.875
29.7144
29.875
29.7144
17.8404
14.4486
17.8367
29.7111
29.6982
29.7111
29.6982
11.2441
16.5715
11.2477
29.7534
29.7016
29.7533
29.7016
13.3198
11.3915
13.3235
29.6931
29.6877
29.6931
29.6877
10.9364
12.0816
10.9388
29.7174
29.6902
29.7174
29.6902
11.5405
10.5247
11.5452
29.6917
29.6865
29.6917
29.6865
11.0277
10.5134
11.0299
29.7052
29.6863
29.7052
29.6863
11.2618
10.4595
11.2639
29.6937
29.6859
29.6937
29.6859
11.1044
10.4619
11.106
29.6997
29.6857
29.6997
29.6857
11.1901
10.4538
11.1913
29.6958
29.6857
29.6958
29.6858
11.1432
10.4541
11.1439
29.6978
29.6857
29.6978
29.6857
11.1686
10.453
11.1689
29.6967
29.6857
29.6967
29.6857
11.1552
10.4529
11.1552
29.6973
29.6857
29.6973
29.6857
11.1662
10.453
11.1659
29.6968
29.6857
29.6968
29.6857
18.8753
29.764
18.8698
39.7894
28.5909
39.7894
28.5907
27.1731
18.5481
27.1304
29.7007
29.7154
29.7008
29.7154
15.4378
27.8919
15.4478
29.875
29.7144
29.875
29.7144
17.8368
14.4466
17.8349
29.7111
29.6982
29.7111
29.6982
11.2433
16.5684
11.2485
29.7534
29.7016
29.7533
29.7016
13.3147
11.3874
13.3203
29.6932
29.6877
29.6931
29.6877
10.9356
12.0756
10.939
29.7174
29.6902
29.7173
29.6902
11.5352
10.5229
11.5416
29.6918
29.6865
29.6917
29.6865
11.0272
10.512
11.0303
29.7052
29.6863
29.7052
29.6863
11.2601
10.4583
11.2629
29.6937
29.6859
29.6937
29.6859
11.1044
10.4609
11.1066
29.6997
29.6857
29.6996
29.6857
11.1889
10.453
11.1906
29.6959
29.6858
29.6959
29.6858
11.1429
10.4532
11.144
29.6978
29.6857
29.6977
29.6857
11.1678
10.4522
11.1682
29.6967
29.6857
29.6967
29.6857
11.1551
10.4521
11.1549
29.6973
29.6857
29.6973
29.6857
11.166
10.4523
11.1652
29.6968
29.6857
29.6969
29.6857
11.152
10.4527
11.151
29.6974
29.6857
29.6974
29.6857
18.8756
29.764
18.869
39.7894
28.5909
39.7894
28.5907
27.1715
18.5492
27.1304
29.7007
29.7154
29.7008
29.7153
15.4368
27.8937
15.4499
29.8751
29.7145
29.8749
29.7144
17.8332
14.4446
17.8331
29.7111
29.6981
29.7111
29.6981
11.2425
16.565
11.2496
29.7533
29.7016
29.7533
29.7016
13.3094
11.3829
13.317
29.6932
29.6876
29.6932
29.6877
10.9346
12.0687
10.939
29.7173
29.6902
29.7173
29.6902
11.5294
10.5209
11.5376
29.6918
29.6865
29.6918
29.6865
11.0267
10.5103
11.0307
29.7052
29.6863
29.7051
29.6863
11.258
10.4571
11.2617
29.6938
29.6859
29.6938
29.6859
11.1043
10.4597
11.1073
29.6996
29.6857
29.6996
29.6857
11.1875
10.4521
11.1897
29.6959
29.6858
29.6959
29.6858
11.1426
10.4522
11.1441
29.6978
29.6857
29.6978
29.6857
11.1668
10.4514
11.1675
29.6968
29.6857
29.6968
29.6857
11.1547
10.4513
11.1546
29.6973
29.6857
29.6973
29.6857
11.1653
10.4515
11.1643
29.6969
29.6857
29.6969
29.6857
11.1523
10.4519
11.1506
29.6974
29.6858
29.6974
29.6858
11.1782
10.452
11.1761
29.6964
29.6857
29.6964
29.6857
18.8759
29.764
18.8681
39.7895
28.5909
39.7894
28.5907
27.1696
18.5501
27.1303
29.7008
29.7153
29.7009
29.7153
15.4354
27.8961
15.4519
29.8751
29.7145
29.8749
29.7144
17.8293
14.4426
17.8312
29.7112
29.6981
29.7112
29.6981
11.2418
16.5614
11.251
29.7533
29.7016
29.7532
29.7016
13.3036
11.3781
13.3134
29.6932
29.6876
29.6932
29.6876
10.9336
12.0611
10.939
29.7173
29.6902
29.7172
29.6902
11.5228
10.5187
11.5329
29.6918
29.6865
29.6918
29.6865
11.0263
10.5084
11.0312
29.7051
29.6862
29.7051
29.6862
11.2556
10.4557
11.2602
29.6939
29.6859