/*--------------------------------*- C++ -*----------------------------------*\
  =========                 |
  \\      /  F ield         | OpenFOAM: The Open Source CFD Toolbox
   \\    /   O peration     | Website:  https://openfoam.org
    \\  /    A nd           | Version:  10
     \\/     M anipulation  |
\*---------------------------------------------------------------------------*/
FoamFile
{
    format      ascii;
    class       volScalarField;
    location    "0.05";
    object      omega;
}
// * * * * * * * * * * * * * * * * * * * * * * * * * * * * * * * * * * * * * //

dimensions      [0 0 -1 0 0 0 0];

internalField   nonuniform List<scalar> 
114955
(
9.77198
9.7616
9.75733
9.75794
9.75615
9.75713
9.75506
9.76722
9.7621
9.75754
9.75697
9.75748
9.75619
9.75616
9.77371
9.76302
9.75652
9.7575
9.75504
9.75542
9.7544
9.76731
9.76314
9.75734
9.76712
9.78976
9.75748
9.75533
9.85314
9.819
9.81295
9.85885
9.78539
9.77112
9.80005
9.77824
9.76604
9.75924
9.78317
9.76183
9.75731
9.90576
9.9425
9.7955
9.77594
9.76463
9.75975
9.75947
9.76606
9.76684
9.75848
9.8347
9.79158
9.78021
9.80122
9.77937
9.76278
9.76957
9.80741
9.75878
9.76103
9.81877
9.76803
9.77816
9.85427
9.90472
9.95867
9.87932
9.77081
9.79514
9.83258
9.9709
10.0393
9.77799
9.7853
9.7754
9.8128
9.95115
10.0336
9.77809
9.77788
9.76917
9.77898
9.83985
9.85925
10.0289
9.91524
9.82902
9.77181
9.77652
9.76352
9.75782
9.75543
9.75455
9.75441
9.89203
9.83979
9.81695
9.76976
9.78337
9.81618
9.76529
9.75736
9.75605
10.0463
9.8871
9.8448
9.8442
9.99075
9.98281
9.95638
9.89605
9.77771
9.76101
10.0064
10.014
9.93311
10.012
9.80187
9.80948
9.99618
9.93259
9.8516
9.77122
9.94825
10.0059
10.3031
9.8011
9.79526
9.7895
9.90907
9.92602
9.81208
9.83884
9.89671
10.0008
9.92726
10.0069
9.81354
9.80165
9.93192
10.0465
10.1094
9.99758
9.84388
9.82192
9.80672
9.86002
10.0772
9.85302
10.3318
12.1112
16.3184
14.446
9.82849
9.82547
9.83734
9.95227
9.97594
10.2
11.4947
16.9375
11.5942
11.5023
9.80216
9.78951
9.825
9.93543
10.2816
11.4936
16.2653
11.1238
10.3445
9.78341
9.77457
9.85419
9.89751
10.1887
11.7509
16.1341
10.1962
10.4006
10.0863
10.0239
9.90522
9.78519
9.79726
9.79319
9.76349
9.75877
9.75587
10.4635
10.6236
9.95859
10.013
10.0643
10.2515
10.1129
10.0731
9.93461
9.78536
9.7643
10.2704
10.1984
10.0492
10.1836
12.1582
16.576
17.1686
12.4415
10.4936
9.95451
9.79548
10.4711
10.8464
10.4989
12.1264
16.4523
12.0126
11.1464
16.7062
11.8197
10.3534
9.92933
10.2055
12.1832
19.0513
11.4747
10.9631
10.3648
13.0451
11.3822
10.2771
9.91754
10.0098
10.5518
12.7183
16.0997
12.1603
10.2179
10.7912
15.7629
14.4876
15.213
9.86297
9.94662
10.0523
12.318
16.687
10.8111
10.539
12.3731
11.9007
11.4594
9.84899
9.82593
9.86484
10.3442
12.2844
13.9488
12.0508
13.0695
15.0281
10.7071
9.84577
9.9201
10.363
11.1118
16.633
13.1994
16.7558
10.5178
10.2406
9.77916
9.85659
10.1988
11.2198
15.462
12.0452
15.2784
9.83338
9.91635
9.83844
9.77617
9.77278
9.761
9.75768
9.75688
9.75528
9.75488
10.4475
10.1021
10.0584
9.86731
9.78475
9.80458
9.79186
9.76087
9.75922
9.75524
11.5197
12.7272
17.4551
15.2436
12.0045
10.3594
10.0367
9.90194
9.83489
9.76973
9.76119
10.9691
18.7402
16.6897
14.3305
16.8865
15.9964
12.0494
10.3808
9.93166
9.85125
9.77228
10.9814
16.6206
14.8894
12.8608
13.2407
12.4126
13.5774
17.4382
11.7484
10.2151
9.86447
10.8481
16.8723
14.2388
14.9123
12.7878
11.0669
12.7865
18.0319
20.5501
11.5344
10.2833
11.1276
12.3213
17.2009
18.3864
11.455
10.2966
10.3148
11.1837
13.5941
17.7891
11.7918
10.1709
11.9648
17.6399
18.5295
10.5433
10.2181
10.4073
12.9471
12.2477
13.6439
9.97535
10.5468
12.2083
16.801
18.9383
10.4394
10.4382
13.9367
12.0056
11.0566
9.84063
9.88157
10.034
12.0776
18.1306
15.3035
16.2388
36.2264
30.3106
35.0937
9.83585
9.94303
10.3478
11.5658
16.1833
17.0658
30.5091
18.5551
16.2221
9.83913
9.94774
10.2674
15.7128
12.7456
25.8423
27.4966
10.0129
10.0036
9.87711
9.82271
9.7936
9.7705
9.78607
9.76831
9.7594
9.75592
9.75512
10.5093
10.6815
9.94629
10.0053
10.0352
9.99475
9.93151
9.83362
9.7772
9.75988
9.75638
11.4693
18.3164
17.0426
15.1412
17.4414
16.0189
12.1077
10.4318
9.85698
9.78077
9.76427
10.6808
17.0158
23.9346
45.5413
12.8219
13.2695
19.5189
11.8601
10.1501
9.83032
9.82175
10.1328
15.0298
42.3024
34.687
37.1076
19.295
17.505
16.5721
11.1676
9.95436
9.95085
10.5242
17.1596
20.481
32.8932
34.3046
44.1209
34.9532
14.7597
15.8291
11.2999
10.0491
11.1013
17.2189
16.4954
19.8022
37.7596
59.3856
85.4121
53.1142
15.641
14.3497
10.9541
11.8173
16.7939
19.1749
37.3994
71.2496
72.83
78.7439
35.4694
11.9022
12.7599
10.0853
11.4179
18.9827
17.1518
37.2713
30.9912
72.3079
72.8206
39.9626
29.3933
9.94017
10.4334
11.6667
17.0454
16.2832
35.4698
67.8918
66.8047
75.8271
74.8814
11.5818
19.6113
16.808
34.578
65.6801
297.566
10.2744
13.5397
12.209
27.0175
150.687
10.0083
10.0142
9.89019
9.82959
9.80346
9.77307
9.78083
9.76684
9.76005
9.75641
9.75566
10.1137
10.502
10.6829
9.94033
9.96681
9.8836
10.0352
9.98399
9.85255
9.78188
9.76476
9.75765
10.2302
11.5078
16.3313
15.2035
15.8631
13.8155
19.5506
12.079
10.3736
9.86465
9.78745
9.77289
9.91687
10.7508
16.3756
43.5251
36.981
53.8548
12.8273
21.21
11.8006
10.1039
9.84262
9.82554
9.8872
10.2398
11.6379
20.2389
145.197
80.0732
46.7654
13.384
19.1606
11.2227
10.0462
10.0434
10.5697
11.7416
39.8662
84.2761
382.714
76.2935
26.7735
15.0007
20.4972
11.2724
10.2108
11.1488
17.3969
13.8099
39.6174
79.3115
364.777
144.863
46.1121
13.5091
19.2729
11.0217
11.7759
17.7885
16.3066
32.244
76.3524
103.401
27.613
15.2541
13.5871
10.0828
11.4813
20.557
15.9021
37.635
69.355
241.715
133.455
35.3456
9.94718
10.4588
11.6151
18.1756
15.4149
24.0543
78.573
197.245
11.5398
21.0474
17.7036
20.4882
132.008
10.2107
11.8491
12.2996
9.87237
9.834
9.88372
9.83202
9.80117
9.82712
9.77011
9.75756
9.75502
9.75459
9.75451
10.015
9.94891
10.1973
10.4697
10.0729
10.0345
10.0641
10.0552
9.87966
9.78736
9.76198
9.75592
9.75466
10.0759
10.3441
11.535
12.8536
16.1634
15.3935
18.8912
12.6476
10.4074
9.87926
9.78228
9.76233
9.75699
10.0637
10.2507
10.965
17.6804
17.4143
12.13
15.7592
19.9249
12.0826
10.1941
9.83781
9.76927
9.76215
10.0337
10.1095
10.9716
16.8356
24.5841
32.1043
48.6785
13.0715
19.7415
12.0439
10.0883
9.8452
9.79004
10.0547
10.1939
10.8869
16.9063
13.8526
37.2031
28.6601
46.2776
12.5572
21.8283
11.9443
10.0746
10.004
10.0572
10.2604
11.1567
12.3276
17.7787
18.372
31.9576
26.5576
32.8042
16.1156
20.5687
11.4466
9.99355
10.0089
9.91144
10.0422
10.2027
11.9633
23.802
20.9711
27.5191
19.1142
30.882
15.9182
15.4528
12.5018
10.0124
9.93402
9.90033
9.96703
10.5127
12.1827
18.7169
15.0951
35.0622
19.5896
32.8663
32.2271
9.84031
9.89644
10.0758
12.0845
22.5106
18.0083
24.0984
24.7249
88.8967
10.9673
14.3226
13.8264
45.2225
9.8602
9.84704
9.8153
9.79527
9.77987
9.76567
9.76079
9.75735
9.75633
9.75514
9.75503
10.0152
9.91967
9.86331
9.83296
9.97622
9.89903
9.83572
9.90856
9.79008
9.76217
9.75633
9.7557
9.75475
10.0169
9.94489
10.1881
10.5302
10.2028
10.1976
10.3081
10.2334
9.91417
9.79619
9.76716
9.75881
9.75815
10.0708
10.1841
10.987
12.101
16.2169
15.373
18.6601
12.7097
10.2213
9.81038
9.76594
9.76379
9.76307
10.0535
10.0871
10.7311
11.6736
14.0323
13.1903
11.5228
17.2772
12.2683
10.1576
9.82047
9.76855
9.76948
10.0678
10.1845
10.9185
12.0146
15.8852
13.3059
10.9052
11.3505
17.4635
12.2043
10.0978
9.82924
9.78024
10.0104
9.90829
10.073
10.2836
12.0931
20.7679
11.3611
11.0039
11.1951
17.614
11.8858
10.1499
9.98459
10.0205
9.9395
9.88716
9.9366
10.5826
12.4104
16.7254
11.7992
10.5997
11.1928
14.1489
14.7723
13.6868
10.0026
9.89326
9.83313
9.83491
9.92417
10.0931
12.277
18.9395
12.2494
10.9461
12.6041
17.1604
9.83767
9.82782
9.85164
10.2356
11.7501
13.5737
11.3328
14.3245
37.5916
10.423
12.4179
12.8953
35.9315
19.0303
9.84197
9.80927
9.80298
9.79034
9.77395
9.77311
9.76146
9.75749
9.75551
9.75487
9.75446
10.008
9.90322
9.86268
9.84885
9.81258
9.79346
9.78148
9.76464
9.76135
9.75859
9.75687
9.75506
9.75455
10.013
9.91885
9.8626
9.83059
9.97747
9.89922
9.83871
9.9028
9.79498
9.76413
9.75778
9.75607
9.75496
30.9145
10.2314
10.0068
9.91981
10.0277
10.126
10.0307
10.0362
10.0576
9.98605
9.82259
9.78238
9.7663
9.75909
9.75694
30.9146
10.2299
10.0079
9.91176
9.96467
10.1613
9.94962
9.91613
9.86945
10.007
9.82803
9.79676
9.76887
9.76457
9.76348
30.9146
10.2322
10.0053
9.91729
10.0252
10.1312
9.9931
9.94285
9.85442
9.81765
10.0182
9.89175
9.80608
9.77689
9.77223
10.013
9.9231
9.88647
9.90586
10.0854
10.2323
9.83571
9.80274
9.80379
9.99947
9.89096
9.8125
9.79741
10.0046
9.90135
9.85204
9.85932
9.9447
9.95833
10.0016
9.83338
9.80529
9.86663
9.97964
10.1127
10.014
10.0069
9.90594
9.84732
9.82741
9.80917
9.81142
9.85968
10.0605
9.87591
10.1762
12.0997
15.348
13.2084
9.81964
9.81623
9.8432
9.92801
9.9999
10.1722
11.6781
15.7072
12.7323
11.8691
10.073
11.0388
15.9858
12.6817
9.84021
9.81401
9.795
9.78145
9.7699
9.76289
9.75794
9.7567
9.75549
9.75496
9.75478
9.7539
10.0084
9.90065
9.83817
9.80712
9.80328
9.79012
9.77291
9.77221
9.76173
9.75797
9.75555
9.75422
9.75434
9.75471
30.914
10.2294
10.0093
9.90404
9.85345
9.84163
9.81951
9.79745
9.78034
9.76546
9.76005
9.75723
9.75615
9.75488
9.75494
30.9141
10.2302
10.0134
9.91488
9.83773
9.81166
9.89625
9.83898
9.79797
9.8159
9.77678
9.76121
9.75634
9.75544
9.75437
30.9142
10.2299
10.0115
9.90936
9.83702
9.80583
9.89795
9.85602
9.79706
9.7703
9.769
9.76171
9.75778
9.75511
9.75519
30.9142
10.2313
10.0126
9.9153
9.83657
9.80649
9.91546
9.85938
9.78624
9.76772
9.76312
9.78565
9.76498
9.75761
9.75427
30.9142
10.2312
10.007
9.90181
9.84751
9.86236
9.90137
9.83141
9.78782
9.76939
9.76337
9.75725
9.77056
9.76053
9.75803
10.0079
9.90498
9.83864
9.81171
9.79275
9.79349
9.80507
9.78263
9.76656
9.77906
9.79133
9.7596
9.75698
10.0044
9.89872
9.83529
9.8191
9.80983
9.81924
9.81976
9.77153
9.77655
9.81761
9.85446
9.9627
9.879
9.81179
9.7886
9.7766
9.76886
9.78765
9.86106
9.88416
10.0176
9.78013
9.79193
9.81026
9.90112
10.0136
9.77832
9.83759
9.80785
9.7903
9.77849
9.76823
9.76411
9.7594
9.7572
9.75566
9.755
9.75393
9.7547
30.9139
10.2303
10.0077
9.89916
9.84164
9.81418
9.79332
9.77973
9.76914
9.76256
9.75847
9.75693
9.75563
9.75487
9.75455
9.75384
30.914
10.2304
10.0082
9.90026
9.84159
9.81187
9.8018
9.78668
9.77325
9.77036
9.76129
9.75775
9.75556
9.75488
9.75381
9.75466
30.9141
10.2312
10.0084
9.90212
9.8546
9.83498
9.80651
9.78717
9.77303
9.76378
9.75893
9.75738
9.75611
9.75506
9.75474
9.75419
9.75605
30.9141
10.2311
10.0081
9.9017
9.85022
9.83391
9.80285
9.78784
9.77423
9.77026
9.76147
9.75814
9.75566
9.75536
9.75429
9.75545
9.7553
30.9142
10.2322
10.0078
9.90225
9.85393
9.83677
9.80466
9.78741
9.77137
9.76433
9.76066
9.75705
9.75617
9.75541
9.75533
9.75487
9.75693
30.9142
10.2326
10.0073
9.90178
9.8433
9.81781
9.80384
9.79307
9.77209
9.7683
9.76177
9.76163
9.75762
9.75658
9.75482
9.75673
9.75523
10.006
9.90027
9.83979
9.81584
9.80035
9.78759
9.77272
9.7677
9.75904
9.75675
9.75625
9.75638
9.75463
9.75483
9.75725
10.0055
9.90032
9.8367
9.81072
9.78921
9.77815
9.77245
9.77329
9.76335
9.77209
9.78272
9.75629
9.75522
9.75551
9.75744
9.81021
9.79083
9.78497
9.77682
9.77547
9.76623
9.77333
9.75936
9.75858
9.75495
9.75497
9.76193
30.9139
10.2304
30.9139
10.2306
10.0096
9.89973
9.83855
9.8083
9.7893
9.77661
9.76721
9.76211
9.75833
9.75681
9.75552
9.755
9.75434
9.75411
30.914
10.2309
10.0096
9.89999
9.83836
9.80733
9.79064
9.77796
9.76783
9.7636
9.75936
9.75724
9.75564
9.75492
9.75373
9.7546
30.9141
10.2311
10.0098
9.90101
9.84043
9.81109
9.79416
9.77962
9.76911
9.76242
9.75787
9.75648
9.75522
9.75475
9.75457
9.75374
30.9141
10.2317
10.0098
9.9014
9.83788
9.80624
9.79916
9.78272
9.77082
9.76677
9.76072
9.7579
9.75574
9.75466
9.75385
9.7545
9.7547
9.75524
30.9142
10.2319
10.0096
9.90175
9.83913
9.80965
9.80147
9.78471
9.77103
9.7632
9.75743
9.75622
9.75489
9.75458
9.75443
9.75383
9.75559
9.75659
30.9142
10.2327
10.0092
9.90183
9.83745
9.80639
9.80003
9.78327
9.77062
9.76434
9.75971
9.75908
9.75615
9.75449
9.75392
9.75434
9.75462
9.75503
30.9142
10.2331
10.0087
9.90191
9.8401
9.81439
9.80237
9.78348
9.77126
9.76357
9.75874
9.75674
9.75475
9.75479
9.75434
9.75417
9.75646
9.75555
30.9142
10.234
10.0082
9.90178
9.83718
9.80821
9.78905
9.77654
9.77052
9.76422
9.76007
9.75844
9.75627
9.75496
9.75366
9.75425
9.7548
9.75584
10.0074
9.90184
9.83727
9.81125
9.79254
9.78183
9.77365
9.76339
9.75922
9.75818
9.75545
9.7567
9.75443
9.75417
9.75726
9.75567
9.80855
9.78679
9.77567
9.76725
9.76254
9.76179
9.75973
9.7571
9.7552
9.75392
9.75376
9.75551
30.9142
10.2325
30.9142
10.2326
30.9143
10.2328
10.0132
9.90213
9.84116
9.80819
9.78874
9.77565
9.76668
9.76197
9.75874
9.7569
9.75561
9.75497
9.75403
9.75446
30.9143
10.2331
10.0134
9.90267
9.84228
9.8096
9.78981
9.77618
9.76703
9.76193
9.75859
9.7568
9.7555
9.75486
9.75403
9.75424
30.9144
10.2333
10.0133
9.90304
9.84266
9.80989
9.79072
9.77692
9.76731
9.76235
9.75889
9.75688
9.75549
9.75485
9.75387
9.75444
30.9144
10.2338
10.0136
9.90386
9.84457
9.81259
9.79222
9.77749
9.76785
9.76213
9.75859
9.75675
9.75539
9.75476
9.75412
9.75419
9.75504
9.75564
30.9145
10.2341
10.0131
9.90399
9.84403
9.81272
9.79192
9.77763
9.76766
9.76228
9.75892
9.75695
9.75548
9.7548
9.75373
9.75443
9.75482
9.75542
30.9145
10.2348
10.013
9.90438
9.84419
9.813
9.79211
9.7779
9.76792
9.76248
9.75908
9.75676
9.75528
9.75469
9.75413
9.7543
9.75496
9.75548
30.9145
10.2353
10.0123
9.90415
9.84245
9.81122
9.79084
9.77775
9.76786
9.76305
9.75953
9.75721
9.75576
9.75474
9.75367
9.75433
9.75478
9.75591
30.9146
10.2361
10.0118
9.90437
9.84124
9.81069
9.79013
9.77795
9.76831
9.76341
9.75931
9.75659
9.75539
9.75469
9.75395
9.75434
9.75489
9.75546
10.011
9.90441
9.84007
9.80974
9.78841
9.77685
9.768
9.7642
9.76075
9.75787
9.75681
9.75441
9.75368
9.75415
9.75482
9.75689
9.80933
9.78774
9.77763
9.76878
9.7648
9.76013
9.75645
9.75559
9.75476
9.75383
9.75436
9.75509
30.9148
10.233
30.9148
10.233
30.9149
10.2332
10.0267
9.9108
9.84818
9.8099
9.78961
9.7754
9.76633
9.7616
9.75835
9.75673
9.75544
9.75491
9.75422
9.75431
30.9149
10.2334
10.0267
9.91096
9.84837
9.80998
9.79
9.77572
9.76653
9.76187
9.75858
9.75681
9.75544
9.75485
9.75399
9.75436
30.915
10.2337
10.0268
9.9115
9.84898
9.81087
9.79085
9.77613
9.76673
9.76169
9.75826
9.75663
9.75528
9.75478
9.75417
9.75411
30.915
10.2341
10.0265
9.91155
9.84871
9.81029
9.79144
9.77652
9.76707
9.7623
9.7588
9.75692
9.7554
9.75479
9.75385
9.7544
9.75482
9.75537
30.915
10.2345
10.0264
9.91208
9.84908
9.81133
9.79197
9.77694
9.76712
9.76193
9.75827
9.75661
9.75514
9.75469
9.75416
9.75392
9.75492
9.75557
30.9151
10.2351
10.026
9.91207
9.84843
9.81053
9.79142
9.77664
9.76719
9.76229
9.75878
9.75703
9.75538
9.75475
9.7538
9.75429
9.75472
9.75523
30.9151
10.2356
10.0257
9.91274
9.84882
9.81202
9.79188
9.77711
9.76755
9.76235
9.7586
9.75676
9.75505
9.75466
9.75405
9.7539
9.75493
9.75546
30.9152
10.2364
10.025
9.9126
9.84738
9.81064
9.78948
9.7759
9.76726
9.76245
9.75879
9.757
9.7553
9.7547
9.75386
9.75406
9.75473
9.75533
30.9152
10.2372
10.0244
9.9132
9.84722
9.81154
9.78997
9.77709
9.76818
9.76282
9.75884
9.75697
9.7551
9.75471
9.75395
9.75392
9.75484
9.75544
9.81065
9.78835
9.77607
9.76718
9.76264
9.75883
9.75712
9.75529
9.75467
9.75391
9.75391
9.75478
30.9159
10.239
30.9159
10.2389
30.9159
10.2391
30.9159
10.2391
30.9159
10.2394
10.0402
9.916
9.85636
9.81195
9.79137
9.77594
9.7665
9.76166
9.75842
9.75672
9.7554
9.75484
9.75422
9.75446
30.916
10.2396
10.0403
9.91637
9.85678
9.81237
9.79175
9.77614
9.76662
9.76171
9.75842
9.75668
9.75534
9.75477
9.75413
9.75441
30.916
10.2398
10.0402
9.91673
9.85705
9.81269
9.79196
9.77626
9.76663
9.76168
9.75846
9.75668
9.75532
9.75476
9.75411
9.75436
30.916
10.2402
10.0402
9.91716
9.85746
9.81327
9.7924
9.77651
9.76688
9.76183
9.75849
9.75666
9.75528
9.7547
9.75408
9.75437
9.75486
9.75543
30.9161
10.2406
10.0399
9.91746
9.85737
9.81349
9.79229
9.77652
9.76682
9.76181
9.75855
9.75668
9.7553
9.7547
9.75403
9.75429
9.75478
9.75538
30.9161
10.2412
10.0396
9.91772
9.85715
9.81356
9.79223
9.77668
9.76708
9.76211
9.75868
9.75667
9.75524
9.75464
9.75404
9.75433
9.75476
9.75535
30.9162
10.2417
10.039
9.91792
9.85663
9.81348
9.79178
9.77668
9.76713
9.76227
9.75878
9.75671
9.75533
9.75464
9.75396
9.75425
9.75472
9.75544
30.9162
10.2425
10.0384
9.91813
9.85584
9.81323
9.79132
9.77687
9.76742
9.76262
9.75885
9.75666
9.75526
9.75459
9.75397
9.75427
9.75469
9.75533
30.9163
10.2433
10.0377
9.91845
9.85522
9.81329
9.79093
9.77699
9.76756
9.7629
9.75917
9.7568
9.75541
9.75455
9.75391
9.75423
9.75465
9.75549
9.81311
9.79043
9.77719
9.76779
9.76324
9.75914
9.75664
9.75528
9.75455
9.7539
9.75425
9.75463
30.9182
10.2507
30.9182
10.2508
30.9182
10.2508
30.9182
10.2509
30.9182
10.251
10.1241
9.94785
9.87617
9.81763
9.79159
9.77586
9.76556
9.76139
9.75796
9.75664
9.75531
9.75489
9.75453
9.75452
30.9183
10.2511
10.1241
9.94813
9.87635
9.81779
9.79174
9.77596
9.76562
9.76145
9.75799
9.75662
9.75527
9.75484
9.75447
9.75447
30.9183
10.2513
10.1241
9.94853
9.87657
9.81809
9.79194
9.77607
9.76566
9.76145
9.75795
9.75659
9.75523
9.75482
9.75446
9.75444
30.9183
10.2515
10.1239
9.94878
9.87655
9.81812
9.79205
9.77618
9.76578
9.76161
9.75805
9.75663
9.75524
9.7548
9.7544
9.75443
9.75485
9.75539
30.9183
10.2518
10.1237
9.94922
9.87656
9.81843
9.79208
9.77629
9.76581
9.76163
9.75799
9.75659
9.75519
9.75477
9.7544
9.75436
9.75482
9.75538
30.9184
10.2521
10.1232
9.94941
9.87618
9.8183
9.79188
9.7763
9.76592
9.7618
9.75808
9.75663
9.7552
9.75475
9.75435
9.75437
9.75478
9.75532
30.9184
10.2524
10.1228
9.94989
9.87599
9.81867
9.79185
9.77651
9.76609
9.76194
9.75807
9.7566
9.75514
9.75471
9.75431
9.75428
9.75477
9.75535
30.9185
10.2529
10.122
9.95002
9.87515
9.81836
9.79126
9.7764
9.76612
9.76207
9.7581
9.75662
9.75517
9.7547
9.75431
9.7543
9.75473
9.75531
30.9185
10.2533
10.1212
9.95053
9.87471
9.81867
9.79128
9.77683
9.76641
9.76233
9.75815
9.75661
9.75512
9.75466
9.75421
9.75422
9.75471
9.75532
9.81845
9.79081
9.77681
9.76631
9.76239
9.75812
9.75661
9.75514
9.75464
9.75427
9.75422
9.7547
30.92
10.2906
30.9201
10.2906
30.9201
10.2906
30.9201
10.2906
30.9201
10.2907
10.1645
9.9635
9.89401
9.83373
9.79868
9.78151
9.7681
9.7635
9.75908
9.75753
9.756
9.75554
9.75517
9.75524
30.9201
10.2908
10.1646
9.96384
9.89418
9.83392
9.79877
9.78157
9.76812
9.76351
9.75907
9.75748
9.75596
9.75549
9.75512
9.75521
30.9202
10.2909
10.1646
9.96422
9.89431
9.83412
9.79883
9.78162
9.76812
9.76352
9.75907
9.75747
9.75594
9.75548
9.75511
9.75519
30.9202
10.2911
10.1645
9.96463
9.89439
9.83436
9.79892
9.78174
9.76824
9.76361
9.75908
9.75744
9.75592
9.75545
9.75509
9.75518
9.75553
9.75609
30.9202
10.2915
10.1643
9.96506
9.89434
9.83457
9.79887
9.78182
9.76828
9.76365
9.75907
9.75743
9.75591
9.75544
9.75507
9.75515
9.75547
9.75605
30.9203
10.2919
10.1639
9.96544
9.89415
9.83471
9.79882
9.78199
9.76845
9.76378
9.75909
9.7574
9.75588
9.7554
9.75504
9.75514
9.75545
9.75602
30.9203
10.2924
10.1634
9.96591
9.8939
9.83491
9.79871
9.78217
9.76855
9.76388
9.75909
9.75738
9.75587
9.75538
9.75501
9.75511
9.75542
9.75602
30.9204
10.2931
10.1628
9.96631
9.89344
9.83496
9.79855
9.78243
9.76874
9.76404
9.75911
9.75736
9.75585
9.75535
9.75499
9.7551
9.75539
9.75598
30.9204
10.2938
10.162
9.96693
9.89305
9.83518
9.79851
9.78277
9.7689
9.76418
9.75913
9.75734
9.75584
9.75533
9.75496
9.75508
9.75536
9.75598
9.83529
9.79841
9.78307
9.76904
9.76433
9.75913
9.75731
9.75582
9.75531
9.75493
9.75506
9.75534
30.9288
10.9846
30.9288
10.9847
30.9288
10.9848
30.9289
10.9849
30.9289
10.9853
10.6616
10.0668
9.89585
9.83582
9.79108
9.77875
9.7675
9.7642
9.76142
9.7601
9.75936
9.7589
9.75877
9.75881
30.9289
10.9856
10.6619
10.0671
9.89591
9.8359
9.79111
9.77876
9.76748
9.76419
9.76139
9.76006
9.75932
9.75886
9.75873
9.75877
30.9289
10.9861
10.6621
10.0675
9.89595
9.83601
9.79115
9.77879
9.76748
9.7642
9.76137
9.76004
9.7593
9.75885
9.75872
9.75876
30.9289
10.9866
10.6621
10.0679
9.89594
9.8361
9.79118
9.77886
9.76752
9.76422
9.76136
9.76002
9.75928
9.75883
9.7587
9.75874
9.75884
9.75949
30.929
10.9872
10.6621
10.0684
9.89588
9.83622
9.79118
9.77894
9.76754
9.76423
9.76133
9.75999
9.75926
9.75881
9.75869
9.75872
9.7588
9.75944
30.929
10.988
10.6618
10.0688
9.89571
9.83628
9.79114
9.77903
9.7676
9.76426
9.76131
9.75997
9.75923
9.75879
9.75867
9.75871
9.75877
9.75941
30.929
10.9888
10.6615
10.0693
9.89552
9.8364
9.79109
9.77917
9.76766
9.76429
9.76128
9.75994
9.75921
9.75876
9.75865
9.75868
9.75875
9.75939
30.9291
10.9898
10.6608
10.0698
9.89513
9.83636
9.79095
9.7793
9.76771
9.76432
9.76126
9.75991
9.75919
9.75874
9.75864
9.75866
9.75873
9.75936
30.9291
10.991
10.6601
10.0704
9.89476
9.83645
9.7909
9.77954
9.7678
9.76437
9.76124
9.75988
9.75916
9.75871
9.75862
9.75863
9.75871
9.75934
9.83647
9.79079
9.77972
9.76781
9.76438
9.76121
9.75985
9.75915
9.75869
9.75861
9.75861
9.7587
30.8501
12.1434
30.8502
12.1448
10.6442
10.6015
9.99194
9.95291
9.83485
30.8502
12.145
10.6444
10.6016
9.99203
9.95292
9.83488
9.83019
9.80102
9.80298
30.8502
12.145
10.6446
10.6016
9.99211
9.95296
9.83492
9.83016
9.80102
9.80294
9.79386
9.7953
9.79279
9.79382
30.8502
12.1455
10.6458
10.6018
9.99217
9.95301
9.83489
9.83013
9.80099
9.80288
9.79381
9.79523
9.79276
9.79377
9.79312
9.79366
30.8503
12.1457
10.6459
10.602
9.99229
9.95312
9.83497
9.83013
9.80103
9.80283
9.79381
9.79519
9.79277
9.79375
9.79312
9.79363
9.79302
30.8503
12.1461
10.6461
10.6023
9.99243
9.95324
9.83506
9.83014
9.80108
9.80277
9.79381
9.79515
9.79278
9.79373
9.79312
9.79361
9.79302
9.79434
30.8503
12.1466
10.6462
10.6025
9.99255
9.95339
9.83518
9.83016
9.80116
9.80272
9.79382
9.79509
9.7928
9.79371
9.79313
9.7936
9.79301
9.79428
30.8503
12.1471
10.6463
10.6028
9.99264
9.95356
9.8353
9.83019
9.80123
9.80265
9.79382
9.79504
9.79282
9.79369
9.79314
9.79358
9.79303
9.79424
9.79274
30.8504
12.1477
10.6463
10.6031
9.99268
9.95375
9.83545
9.83025
9.80133
9.80259
9.79382
9.79499
9.79284
9.79367
9.79316
9.79357
9.79304
9.79421
9.79273
30.8504
12.1484
10.6463
10.6035
9.9927
9.95398
9.83564
9.83029
9.80141
9.80251
9.79383
9.79493
9.79287
9.79366
9.79318
9.79355
9.79306
9.79417
9.79276
30.8504
12.1491
10.6462
10.6038
9.99266
9.95424
9.83589
9.83031
9.80147
9.80242
9.79384
9.79488
9.7929
9.79364
9.79319
9.79354
9.79308
9.79414
9.79277
30.8505
9.80152
9.80232
9.79384
9.79482
9.79294
9.79363
9.79321
9.79353
9.79311
9.79411
9.80224
9.79385
9.79476
9.79297
9.79362
9.79324
9.79353
9.79313
29.7418
18.6156
29.7418
18.6151
28.0118
14.5389
16.6871
11.4469
12.1426
29.7418
18.6149
28.0125
14.5379
16.6857
11.445
12.1404
10.5348
10.5171
10.4624
29.7418
18.6134
28.0132
14.5363
16.6838
11.4424
12.1369
10.534
10.5165
10.462
10.4628
10.4542
10.4541
10.4527
29.7418
18.613
28.0142
14.5345
16.6812
11.439
12.1322
10.533
10.5158
10.4614
10.4624
10.4538
10.4536
10.4522
10.4516
10.4515
29.7418
18.6114
28.0154
14.5323
16.6784
11.4351
12.1266
10.5316
10.5149
10.4606
10.4617
10.4532
10.4529
10.4515
10.451
10.4508
10.4508
29.7418
18.6102
28.0169
14.5301
16.6754
11.4309
12.1203
10.5301
10.5138
10.4598
10.4609
10.4526
10.4522
10.4508
10.4502
10.4501
10.4499
10.4496
29.7419
18.6089
28.0189
14.5279
16.6723
11.4265
12.1133
10.5283
10.5125
10.4588
10.46
10.4519
10.4513
10.45
10.4494
10.4492
10.449
10.4487
29.7419
18.6076
28.0213
14.5256
16.6693
11.4218
12.1057
10.5263
10.511
10.4578
10.4591
10.451
10.4503
10.4491
10.4484
10.4482
10.448
10.4476
10.4494
29.7419
18.6063
28.0242
14.5234
16.6662
11.4172
12.0977
10.5241
10.5093
10.4566
10.4579
10.4501
10.4491
10.4481
10.4473
10.447
10.4468
10.4464
10.448
29.7419
18.6049
28.0276
14.5209
16.6627
11.4121
12.0881
10.5216
10.5075
10.4554
10.4566
10.4491
10.4477
10.4468
10.446
10.4457
10.4454
10.445
10.4464
29.742
18.6035
28.0315
14.5183
16.659
11.407
12.0775
10.5187
10.5055
10.4541
10.4551
10.4478
10.4463
10.4455
10.4446
10.4442
10.444
10.4435
10.4448
29.742
10.5033
10.4527
10.4534
10.4465
10.4448
10.444
10.4432
10.4427
10.4424
10.4419
10.4511
10.4515
10.445
10.4434
10.4425
10.4417
10.4411
10.4408
33.9892
36.1773
24.1614
18.8739
84.8598
71.6619
149.278
17.0652
80.0074
22.6673
34.626
23.4751
211.903
147.387
18.7089
28.4118
138.389
43.9146
35.8763
40.8887
160.905
99.9169
90.3492
246.786
35.1244
32.7738
30.2513
245.438
90.8941
84.0026
324.087
99.1648
79.5393
96.344
325.803
140.807
96.085
99.3683
58.3527
93.0562
108.569
66.3244
101.416
69.9004
81.5849
156.657
99.0937
29.7674
70.9687
78.1608
135.645
44.0101
180.293
19.1995
75.6028
33.6154
85.4716
72.4068
26.5942
78.1096
72.9938
71.1765
217.687
186.493
122.975
79.5044
253.09
160.247
66.4791
257.92
62.9792
165.748
109.325
55.3007
179.547
146.597
49.4268
113.351
86.5068
382.981
19.673
31.0342
26.3381
22.5532
106.271
86.7691
364.12
15.8107
31.5306
20.4109
21.5478
132.98
104.911
18.0065
97.3441
61.8881
101.819
119.633
75.3546
233.692
77.9302
23.6331
36.9341
92.5209
147.091
110.915
66.3263
43.7731
53.1889
83.8031
32.6124
164.68
69.036
26.7186
36.878
86.7661
229.319
143.587
71.1148
87.4312
62.6492
114.646
87.033
76.36
34.0535
36.9109
32.8142
21.3374
14.0171
64.3176
37.9336
35.1998
27.4579
29.249
36.1455
30.0664
57.3273
18.8732
29.7418
18.8732
39.749
28.5723
39.749
28.5723
27.2733
18.6154
27.2688
29.682
29.6951
29.682
29.6951
18.8739
29.7418
18.8728
39.749
28.5723
39.749
28.5723
27.3166
18.6159
27.2689
29.682
29.6951
29.682
29.6951
15.4921
28.0067
15.4931
29.8602
29.693
29.8602
29.693
17.964
14.5441
17.956
29.6882
29.675
29.6882
29.675
11.2487
16.6878
11.2485
29.7327
29.6789
29.7327
29.6789
13.3889
11.4472
13.3881
29.6696
29.664
29.6696
29.664
10.9368
12.1428
10.9375
29.6951
29.667
29.6951
29.667
18.8744
29.7418
18.8721
39.749
28.5723
39.749
28.5723
27.316
18.6169
27.2692
29.682
29.6951
29.682
29.6951
15.4922
28.0069
15.4948
29.8602
29.693
29.8601
29.693
17.9629
14.5429
17.9557
29.6882
29.675
29.6882
29.675
11.2481
16.6857
11.2489
29.7327
29.6789
29.7327
29.6789
13.3868
11.4447
13.387
29.6696
29.664
29.6696
29.664
10.9367
12.1396
10.9376
29.6951
29.6669
29.6951
29.667
11.5619
10.5338
11.564
29.668
29.6628
29.668
29.6628
11.0256
10.5161
11.0266
29.6823
29.6627
29.6823
29.6627
11.2701
10.4616
11.2713
29.6699
29.6621
29.6699
29.6621
18.8747
29.7418
18.8714
39.749
28.5724
39.749
28.5723
27.3145
18.6169
27.2688
29.682
29.6951
29.682
29.6951
15.4917
28.0076
15.4964
29.8602
29.693
29.8601
29.693
17.9598
14.5413
17.9542
29.6883
29.675
29.6883
29.675
11.2471
16.6832
11.2492
29.7327
29.6789
29.7327
29.6789
13.3826
11.4416
13.3845
29.6696
29.664
29.6696
29.6641
10.9359
12.1353
10.9375
29.6951
29.6669
29.695
29.6669
11.5583
10.5326
11.5614
29.668
29.6628
29.668
29.6628
11.0252
10.515
11.0267
29.6823
29.6626
29.6823
29.6627
11.2693
10.4608
11.2706
29.6699
29.6621
29.6699
29.6621
11.1016
10.4618
11.1028
29.6764
29.6619
29.6764
29.6619
11.1937
10.4534
11.1946
29.6721
29.662
29.6721
29.662
11.1422
10.4535
11.1428
29.6743
29.6619
29.6743
29.6619
11.1702
10.4524
11.1708
29.6731
29.6619
29.6731
29.6619
18.8751
29.7418
18.8707
39.749
28.5724
39.749
28.5723
27.3134
18.6183
27.2692
29.682
29.6951
29.6821
29.6951
15.4914
28.0087
15.4985
29.8602
29.693
29.8601
29.6929
17.957
14.5396
17.9531
29.6883
29.675
29.6883
29.675
11.2464
16.6801
11.2499
29.7327
29.6789
29.7327
29.6789
13.3785
11.4376
13.3821
29.6696
29.664
29.6696
29.6641
10.9352
12.1298
10.9377
29.695
29.6669
29.695
29.6669
11.554
10.5311
11.5587
29.668
29.6628
29.668
29.6628
11.0248
10.5137
11.027
29.6822
29.6626
29.6822
29.6626
11.2679
10.4598
11.2699
29.6699
29.6621
29.6699
29.6621
11.1017
10.461
11.1033
29.6763
29.6619
29.6763
29.6619
11.1929
10.4527
11.1941
29.6721
29.662
29.6721
29.662
11.1421
10.4528
11.1429
29.6743
29.6619
29.6743
29.662
11.17
10.4517
11.1702
29.6731
29.6619
29.6731
29.6619
11.1548
10.4515
11.1548
29.6737
29.6619
29.6737
29.662
11.1674
10.4517
11.1671
29.6732
29.6619
29.6732
29.6619
18.8754
29.7418
18.8699
39.749
28.5724
39.749
28.5723
27.3116
18.6189
27.269
29.6821
29.6951
29.6822
29.695
15.4906
28.0101
15.5005
29.8602
29.693
29.8601
29.6929
17.9533
14.5374
17.9512
29.6883
29.675
29.6883
29.675
11.2455
16.6768
11.2507
29.7327
29.6789
29.7326
29.6789
13.3732
11.4332
13.3787
29.6696
29.664
29.6696
29.664
10.9344
12.1234
10.9378
29.695
29.6669
29.695
29.6669
11.5485
10.5293
11.5549
29.668
29.6628
29.668
29.6628
11.0244
10.5122
11.0274
29.6822
29.6626
29.6822
29.6626
11.2661
10.4585
11.2689
29.67
29.6621
29.6699
29.6621
11.1017
10.4599
11.104
29.6763
29.6619
29.6763
29.6619
11.1916
10.4518
11.1933
29.6722
29.662
29.6722
29.662
11.1419
10.4519
11.143
29.6743
29.662
29.6743
29.662
11.1691
10.4509
11.1696
29.6731
29.662
29.6731
29.662
11.1548
10.4507
11.1546
29.6737
29.662
29.6737
29.662
11.1672
10.451
11.1663
29.6732
29.6619
29.6732
29.6619
11.1514
10.4513
11.1504
29.6739
29.662
29.6739
29.662
18.8757
29.7418
18.8691
39.7491
28.5724
39.749
28.5722
27.3099
18.62
27.269
29.6821
29.695
29.6822
29.695
15.4896
28.0119
15.5026
29.8602
29.693
29.8601
29.6929
17.9495
14.5353
17.9493
29.6884
29.6749
29.6883
29.6749
11.2447
16.6733
11.2518
29.7327
29.6789
29.7326
29.6789
13.3676
11.4285
13.3752
29.6697
29.664
29.6696
29.664
10.9335
12.1163
10.9378
29.695
29.6669
29.6949
29.6669
11.5424
10.5272
11.5506
29.6681
29.6628
29.668
29.6628
11.0238
10.5106
11.0278
29.6822
29.6626
29.6821
29.6626
11.2639
10.4572
11.2676
29.67
29.6621
29.67
29.6621
11.1017
10.4588
11.1047
29.6763
29.6619
29.6763
29.662
11.1902
10.4509
11.1924
29.6722
29.662
29.6722
29.662
11.1417
10.4509
11.1432
29.6743
29.662
29.6743
29.662
11.1681
10.45
11.1688
29.6732
29.662
29.6732
29.662
11.1545
10.4499
11.1543
29.6737
29.662
29.6737
29.662
11.1664
10.4502
11.1654
29.6733
29.662
29.6733
29.662
11.1518
10.4505
11.1501
29.6739
29.662
29.6739
29.662
11.1802
10.4507
11.1782
29.6727
29.662
29.6727
29.662
18.876
29.7418
18.8682
39.7491
28.5724
39.7491
28.5722
27.3081
18.6208
27.2689
29.6822
29.695
29.6823
29.6949
15.4882
28.0143
15.5046
29.8602
29.693
29.8601
29.6929
17.9455
14.5332
17.9472
29.6884
29.6749
29.6884
29.6749
11.244
16.6696
11.2532
29.7327
29.6789
29.7326
29.6789
13.3616
11.4235
13.3713
29.6697
29.664
29.6697
29.664
10.9325
12.1083
10.9379
29.6949
29.6668
29.6949
29.6668
11.5355
10.5249
11.5457
29.6681
29.6628
29.6681
29.6628
11.0234
10.5086
11.0283
29.6821
29.6626
29.6821
29.6626
11.2615
10.4558
11.2661
29.6701
29.6621
29.6701
29.6621
11.1019