/*--------------------------------*- C++ -*----------------------------------*\
  =========                 |
  \\      /  F ield         | OpenFOAM: The Open Source CFD Toolbox
   \\    /   O peration     | Website:  https://openfoam.org
    \\  /    A nd           | Version:  10
     \\/     M anipulation  |
\*---------------------------------------------------------------------------*/
FoamFile
{
    format      ascii;
    class       volScalarField;
    location    "0.05";
    object      p;
}
// * * * * * * * * * * * * * * * * * * * * * * * * * * * * * * * * * * * * * //

dimensions      [0 2 -2 0 0 0 0];

internalField   nonuniform List<scalar> 
114955
(
109.161
107.768
109.062
107.918
108.892
108.061
108.796
109.242
107.66
109.076
107.879
108.932
108
108.893
109.212
107.733
109.069
107.94
108.85
108.109
108.729
109.292
107.599
109.07
107.881
108.842
108.066
108.742
106.805
109.73
107.181
106.593
109.881
107.058
109.21
107.617
108.927
107.861
108.823
107.98
108.855
106.882
109.675
107.345
109.054
107.79
108.8
107.985
108.742
108.118
108.719
106.642
109.856
107.036
109.155
107.642
108.825
107.962
108.7
108.133
108.736
109.259
107.702
108.815
107.966
108.774
108.092
108.709
109.412
107.408
108.871
107.917
108.72
108.18
108.737
107.601
108.854
107.958
108.71
108.194
108.712
107.224
109.106
107.83
108.781
108.128
109.406
107.379
109.458
107.364
109.45
107.465
109.361
107.545
109.315
109.182
107.712
109.107
107.827
109.105
107.82
109.001
107.922
108.946
107.28
109.248
107.509
109.239
107.505
109.193
107.798
109.036
107.827
109.06
107.513
109.151
107.805
109.115
107.837
108.988
108.072
108.756
108.145
108.674
107.019
109.334
107.172
109.271
107.65
109.027
108.006
108.883
108.093
108.828
107.258
109.519
107.614
109.228
107.801
109.023
108.111
108.735
108.186
108.612
106.893
109.709
107.096
109.282
107.488
109.015
107.963
108.75
107.621
107.941
107.006
109.704
107.247
109.434
107.784
108.904
108.346
107.904
107.916
108.027
109.883
106.976
109.569
107.446
108.985
108.347
108.1
107.984
108.054
106.999
109.63
107.496
109.125
107.77
108.921
107.832
110.337
106.884
109.73
107.17
109.416
107.675
109.156
107.66
109.159
107.714
109.151
110.583
106.049
109.945
106.871
109.327
107.395
109.117
107.736
109
107.831
109.011
110.194
106.355
109.6
107.237
109.151
107.356
107.988
108.065
108.895
108.076
108.809
110.504
106.227
109.773
107.427
108.233
107.88
108.025
107.761
108.404
108.233
108.65
106.819
109.843
107.082
108.124
107.973
108.061
108.02
108.414
108.357
108.606
106.601
109.73
107.23
108.376
107.993
108.055
107.942
107.849
107.76
107.843
106.893
109.755
107.423
109.183
107.703
108.123
107.934
108.095
108.007
108.054
106.589
109.882
106.979
109.075
107.551
108.075
108.027
108.035
108.092
108.205
109.813
107.179
109.416
108.277
108.098
107.979
108.027
108.113
108.241
106.754
109.516
107.148
108.875
107.469
107.642
107.931
106.56
109.858
106.936
109.94
106.885
109.951
106.964
109.889
107.094
109.777
106.696
109.979
106.817
109.716
107.298
109.498
107.38
109.357
107.481
109.371
110.562
106.602
107.529
107.202
108.859
107.617
109.246
107.511
109.339
107.491
109.374
110.859
105.536
107.227
107.361
107.682
107.6
108.536
108.035
108.712
108.002
108.793
111.017
105.932
107.346
107.442
107.952
107.941
107.92
107.659
108.615
107.942
108.921
110.704
106.185
107.562
107.675
108.074
108.028
108.324
108.077
107.879
108.226
108.483
110.502
106.758
108.542
107.955
108.135
108.186
108.327
108.301
107.848
107.745
108.507
107.059
109.444
107.472
108.335
108.177
108.27
108.221
108.075
108.061
107.79
106.705
109.662
107.184
108.485
108.147
108.253
108.313
108.341
108.297
108.246
106.798
109.815
107.193
109.246
107.635
108.295
108.526
107.781
107.992
108.23
109.998
106.844
109.447
107.388
108.402
108.496
108.125
108.225
108.422
106.927
109.576
107.877
108.212
108.244
107.796
108.006
110.515
106.67
109.855
107.01
109.732
107.105
109.785
107.075
109.757
107.139
109.759
110.771
105.686
110.265
106.424
109.909
107.009
109.633
107.194
109.528
107.375
109.439
111.073
105.448
107.345
107.338
107.8
107.566
108.769
107.838
109.109
107.684
109.244
111.078
106.436
107.976
107.524
108.206
108.01
107.914
107.787
109.02
107.839
108.948
110.88
106.616
107.742
107.777
107.728
108.269
108.111
107.892
108.545
108.178
108.841
110.921
106.77
108.314
108
107.881
108.178
107.961
108.346
107.926
108.194
108.549
110.674
106.535
108.441
108.377
108.404
108.202
108.342
108.317
108.407
107.93
108.714
106.845
108.902
108.249
108.433
108.355
108.31
108.361
108.001
108.407
107.859
106.8
109.791
107.376
108.665
108.348
108.322
108.237
108.308
108.34
107.927
106.694
109.651
107.264
108.698
108.203
108.296
108.313
108.359
108.45
108.594
109.719
107.482
108.373
108.407
108.452
108.378
107.41
108.562
108.465
108.417
108.412
110.588
106.588
109.985
106.878
109.944
106.883
110.043
106.816
110.011
106.918
109.942
106.312
110.795
105.652
110.189
106.465
109.883
107.04
109.593
107.227
109.536
107.357
109.503
106.002
111.092
105.904
107.559
107.485
107.987
107.663
108.949
107.47
109.368
107.398
109.461
106.205
111.163
106.525
107.792
107.675
107.913
108.27
108.027
107.912
108.934
107.906
108.901
106.268
111.006
106.88
108.324
108.792
108.589
108.09
108.392
107.735
108.672
107.888
109.063
111.017
106.864
108.475
108.813
108.41
108.619
108.064
108.262
107.842
108.178
108.448
110.715
106.895
108.728
108.69
108.773
108.364
108.473
108.534
108.342
107.891
108.821
106.791
109.129
108.255
108.661
108.705
108.434
108.178
108.247
107.915
106.727
109.876
107.603
108.788
108.634
108.657
108.107
108.482
108.494
106.609
109.768
107.19
108.961
108.239
108.522
108.556
108.508
109.875
107.639
108.422
108.455
108.509
107.479
108.66
108.494
110.568
106.27
110.021
106.745
109.958
106.757
110.085
106.843
109.981
106.946
109.936
109.887
106.434
110.755
106.425
110.353
106.393
110.181
106.769
109.874
106.984
109.729
107.202
109.6
109.941
106.311
110.79
106.299
108.319
107.58
108.253
107.632
109.494
107.489
109.413
107.473
109.437
109.955
106.103
110.704
106.403
108.405
108.069
108.481
107.768
108.922
107.685
109.111
107.722
109.076
110.011
106.192
110.906
106.979
108.737
108.463
108.209
108.404
108.102
107.968
108.942
107.909
108.982
109.878
106.199
110.648
106.927
108.694
108.512
108.463
108.125
108.553
107.86
108.511
108.215
108.648
109.802
106.473
110.667
106.489
108.893
108.145
108.465
108.353
108.374
108.357
107.96
108.088
108.671
109.641
106.702
110.239
106.883
109.527
107.803
108.751
108.471
108.319
108.293
108.33
107.828
107.85
109.59
106.672
110.198
106.508
109.777
107.073
108.86
108.217
108.411
108.279
108.314
107.963
106.627
109.952
107.039
109.369
107.856
108.621
108.425
108.32
108.574
107.257
108.696
108.612
108.498
110.67
106.155
110.69
106.221
110.587
106.381
110.415
106.548
110.228
106.747
110.107
109.96
106.391
110.653
106.15
110.168
106.683
110.03
106.8
109.95
106.999
109.795
107.141
109.751
109.864
106.499
110.63
106.624
110.007
106.663
109.92
107.056
109.73
107.079
109.718
107.192
109.651
109.947
106.445
110.698
106.548
108.7
107.794
108.448
107.729
109.348
107.628
109.273
107.648
109.256
109.746
106.532
110.434
106.478
108.983
108.066
108.464
107.789
108.921
107.748
109.152
107.689
109.207
109.89
106.515
110.606
106.662
109.041
108.04
108.413
108.057
108.224
108.01
108.926
108.023
108.837
109.63
106.686
110.233
106.809
109.615
107.563
108.538
108.064
108.353
107.882
108.59
108.162
108.884
109.78
106.577
110.334
106.525
109.61
106.965
108.702
108.013
108.294
108.096
108.061
107.91
108.101
109.51
106.754
110.074
106.64
110.043
107.169
109.517
107.724
108.401
108.079
108.283
108.099
106.345
110.154
106.686
109.382
107.336
108.586
108.317
108.313
108.146
107.954
108.81
108.416
108.257
108.314
110.725
105.984
110.717
106.155
110.626
106.321
110.442
106.56
110.227
106.733
110.146
109.857
106.482
110.625
106.198
110.786
106.165
110.619
106.407
110.308
106.683
110.044
106.946
109.875
109.89
106.449
110.561
106.286
110.104
106.734
109.996
106.843
109.937
107.033
109.78
107.164
109.733
108.023
107.474
109.782
106.561
110.556
106.618
110.281
106.562
110.143
106.876
109.828
107.109
109.624
107.344
109.462
108.02
107.46
109.863
106.517
110.639
106.589
110.106
106.666
109.866
107.178
109.554
107.421
109.373
107.543
109.346
108.015
107.486
109.695
106.636
110.419
106.725
110.13
106.729
109.912
107.141
109.603
107.465
109.284
107.686
109.143
109.744
106.553
110.362
106.361
109.986
106.465
109.803
107.174
109.401
107.7
109.108
107.85
109.013
109.584
106.725
110.206
106.597
110.226
106.977
109.825
107.232
109.472
107.678
109.06
107.905
108.932
109.625
106.606
110.289
106.31
110.219
106.544
109.724
106.982
109.39
107.662
108.944
107.732
108.183
106.437
110.263
106.655
109.939
107.266
109.315
108.046
108.281
108.131
108.256
106.628
109.582
107.67
108.308
110.733
105.938
110.976
105.915
110.891
106.102
110.66
106.371
110.401
106.618
110.25
106.698
109.93
106.398
110.666
106.023
110.638
106.234
110.51
106.444
110.302
106.715
110.076
106.904
109.995
106.898
108.018
107.455
109.814
106.518
110.505
106.211
110.535
106.343
110.402
106.554
110.229
106.746
110.03
106.97
109.888
108.013
107.435
109.849
106.491
110.47
106.295
109.921
106.824
109.761
106.971
109.802
107.139
109.675
107.282
109.622
108.011
107.477
109.687
106.613
110.271
106.415
109.884
106.917
109.719
107.093
109.741
107.141
109.653
107.321
109.546
108.002
107.436
109.789
106.538
110.396
106.37
109.815
106.952
109.531
107.278
109.387
107.414
109.355
107.573
109.322
107.997
107.486
109.583
106.694
110.158
106.494
110.11
106.957
109.633
107.271
109.472
107.41
109.392
107.6
109.298
109.743
106.528
110.364
106.301
110.209
106.602
109.63
107.229
109.311
107.576
109.123
107.809
109.103
109.54
106.688
110.154
106.414
110.276
106.65
109.98
107.159
109.449
107.471
109.302
107.735
109.15
106.178
110.496
106.369
110.07
106.924
109.374
107.6
109.136
107.911
109.007
107.008
109.49
107.459
109.19
110.791
105.864
111.034
105.858
110.928
106.093
110.638
106.404
110.356
106.622
110.245
106.636
108.012
107.426
109.875
106.441
110.673
106.012
110.949
105.967
110.828
106.191
110.523
106.511
110.221
106.78
110.059
106.849
108.008
107.423
109.869
106.443
110.632
106.058
110.753
106.15
110.599
106.417
110.306
106.725
110.038
106.932
109.943
106.935
108.005
107.45
109.778
106.538
110.527
106.214
110.723
106.214
110.565
106.472
110.241
106.789
109.942
107.062
109.767
107.149
109.856
108
107.436
109.803
106.505
110.547
106.187
110.643
106.276
110.416
106.641
110.038
106.996
109.752
107.216
109.661
107.222
109.831
107.993
107.455
109.705
106.591
110.416
106.303
110.58
106.352
110.381
106.654
110.041
107.009
109.71
107.294
109.539
107.386
109.648
107.984
107.432
109.73
106.526
110.444
106.187
110.54
106.286
110.302
106.727
109.896
107.174
109.54
107.433
109.419
107.472
109.605
109.655
106.599
110.34
106.29
110.506
106.409
110.296
106.734
109.919
107.149
109.524
107.464
109.362
107.557
109.528
109.663
106.538
110.371
106.187
110.507
106.316
110.25
106.713
109.82
107.245
109.366
107.594
109.171
107.687
109.395
106.241
110.494
106.331
110.289
106.719
109.84
107.269
109.263
107.632
109.153
107.73
109.379
108.011
107.405
108.008
107.424
109.884
106.452
110.695
105.956
111.002
105.877
110.944
106.065
110.688
106.37
110.407
106.625
110.255
106.686
108.003
107.426
109.854
106.47
110.63
106.021
110.845
106.03
110.745
106.262
110.479
106.578
110.206
106.802
110.092
106.816
108
107.446
109.779
106.544
110.518
106.125
110.744
106.123
110.659
106.323
110.425
106.609
110.156
106.866
110.004
106.945
107.994
107.437
109.775
106.535
110.478
106.168
110.556
106.283
110.423
106.529
110.195
106.832
109.944
107.052
109.841
107.063
109.974
106.872
107.989
107.458
109.687
106.613
110.359
106.259
110.489
106.355
110.38
106.571
110.172
106.838
109.912
107.099
109.768
107.19
109.834
107.021
107.98
107.433
109.722
106.557
110.407
106.216
110.461
106.365
110.275
106.675
110
107.003
109.74
107.249
109.633
107.279
109.765
107.094
107.974
107.456
109.626
106.644
110.287
106.309
110.452
106.421
110.287
106.685
110.034
106.994
109.761
107.285
109.589
107.379
109.678
107.179
107.962
107.416
109.69
106.542
110.396
106.185
110.542
106.285
110.302
106.672
109.942
107.085
109.617
107.393
109.482
107.454
109.614
107.245
109.597
106.629
110.277
106.281
110.491
106.349
110.34
106.68
109.996
107.064
109.669
107.412
109.462
107.522
109.587
107.278
106.145
110.627
106.2
110.421
106.591
109.964
107.103
109.568
107.489
109.372
107.582
109.511
107.994
107.349
107.99
107.361
107.986
107.37
109.929
106.376
110.729
105.915
110.994
105.884
110.88
106.127
110.576
106.453
110.281
106.691
110.154
106.718
107.982
107.384
109.871
106.429
110.647
106
110.907
105.972
110.788
106.209
110.486
106.538
110.184
106.796
110.039
106.846
107.977
107.387
109.846
106.446
110.604
106.037
110.826
106.052
110.684
106.323
110.37
106.656
110.071
106.895
109.952
106.921
107.972
107.397
109.791
106.495
110.531
106.115
110.761
106.12
110.618
106.38
110.305
106.718
109.996
106.987
109.843
107.046
109.952
106.849
107.966
107.393
109.779
106.492
110.514
106.119
110.712
106.166
110.527
106.484
110.188
106.837
109.879
107.089
109.757
107.12
109.903
106.903
107.959
107.395
109.735
106.526
110.448
106.176
110.657
106.211
110.491
106.501
110.167
106.855
109.838
107.144
109.679
107.211
109.803
106.999
107.95
107.384
109.727
106.506
110.442
106.148
110.626
106.217
110.431
106.566
110.063
106.963
109.725
107.247
109.588
107.29
109.75
107.063
107.941
107.377
109.699
106.522
110.398
106.183
110.595
106.242
110.426
106.552
110.077
106.949
109.711
107.266
109.55
107.337
109.706
107.09
109.684
106.505
110.386
106.16
110.565
106.247
110.379
106.591
109.99
107.035
109.602
107.363
109.441
107.425
109.629
107.171
106.175
110.569
106.227
110.405
106.553
110.022
107.012
109.601
107.37
109.432
107.452
109.617
107.973
107.47
107.968
107.475
107.964
107.483
109.707
106.707
110.434
106.267
110.724
106.162
110.684
106.319
110.454
106.596
110.193
106.823
110.056
106.868
107.959
107.485
109.676
106.723
110.384
106.306
110.645
106.235
110.584
106.417
110.345
106.701
110.085
106.92
109.962
106.948
107.954
107.493
109.634
106.758
110.322
106.359
110.579
106.29
110.526
106.461
110.302
106.74
110.04
106.978
109.896
107.033
107.948
107.489
109.615
106.76
110.288
106.38
110.507
106.351
110.425
106.556
110.188
106.848
109.924
107.076
109.8
107.108
109.919
106.92
107.942
107.495
109.573
106.792
110.23
106.426
110.456
106.396
110.386
106.59
110.163
106.874
109.891
107.13
109.739
107.193
109.834
107.01
107.935
107.483
109.57
106.77
110.232
106.407
110.438
106.402
110.335
106.64
110.076
106.959
109.794
107.213
109.66
107.255
109.783
107.06
107.928
107.487
109.529
106.802
110.177
106.453
110.399
106.443
110.318
106.658
110.073
106.973
109.781
107.259
109.608
107.331
109.715
107.125
107.919
107.467
109.539
106.759
110.209
106.394
110.43
106.395
110.328
106.651
110.033
107.015
109.707
107.319
109.545
107.383
109.672
107.168
107.91
107.468
109.5
106.789
110.154
106.444
110.383
106.44
110.312
106.668
110.028
107.031
109.691
107.361
109.498
107.444
109.624
107.213
106.377
110.445
106.363
110.353
106.629
110.021
107.046
109.644
107.404
109.444
107.494
109.576
107.897
107.308
107.892
107.31
107.887
107.313
107.883
107.317
107.878
107.321
109.855
106.453
110.525
106.108
110.704
106.132
110.566
106.393
110.271
106.717
109.986
106.957
109.854
106.997
107.874
107.325
109.82
106.477
110.475
106.149
110.647
106.182
110.504
106.446
110.21
106.775
109.922
107.022
109.787
107.067
107.869
107.327
109.794
106.493
110.438
106.177
110.6
106.225
110.447
106.504
110.147
106.835
109.857
107.081
109.727
107.123
107.864
107.329
109.763
106.511
110.396
106.21
110.553
106.265
110.392
106.548
110.094
106.884
109.801
107.143
109.66
107.195
109.766
107.002
107.858
107.327
109.743
106.518
110.371
106.223
110.518
106.295
110.344
106.598
110.032
106.944
109.732
107.206
109.599
107.253
109.718
107.052
107.851
107.322
109.721
106.524
110.342
106.24
110.486
106.315
110.316
106.615
110.004
106.972
109.693
107.252
109.546
107.311
109.663
107.105
107.843
107.317
109.704
106.522
110.323
106.241
110.458
106.333
110.278
106.653
109.946
107.029
109.625
107.318
109.481
107.373
109.613
107.157
107.835
107.307
109.69
106.517
110.306
106.242
110.442
106.335
110.272
106.647
109.941
107.035
109.607
107.345
109.446
107.411
109.581
107.183
107.827
107.3
109.672
106.515
110.285
106.245
110.41
106.355
110.237
106.678
109.887
107.087
109.536
107.409
109.377
107.476
109.526
107.239
106.238
110.415
106.334
110.247
106.656
109.894
107.083
109.526
107.43
109.35
107.507
109.505
107.836
107.653
107.829
107.651
107.823
107.651
107.818
107.651
107.813
107.652
109.377
107.225
109.876
106.898
110.095
106.772
110.079
106.871
109.941
107.054
109.755
107.222
109.651
107.255
107.807
107.651
109.354
107.234
109.844
106.917
110.053
106.805
110.029
106.915
109.888
107.103
109.701
107.272
109.601
107.301
107.802
107.651
109.33
107.246
109.812
106.939
110.018
106.832
109.998
106.941
109.857
107.134
109.665
107.313
109.557
107.352
107.796
107.647
109.312
107.248
109.791
106.945
109.984
106.856
109.954
106.977
109.801
107.182
109.608
107.365
109.504
107.399
109.594
107.254
107.79
107.645
109.29
107.257
109.768
106.957
109.957
106.875
109.93
106.995
109.781
107.206
109.579
107.406
109.46
107.452
109.545
107.306
107.783
107.638
109.277
107.25
109.757
106.951
109.942
106.88
109.907
107.013
109.743
107.241
109.528
107.45
109.413
107.494
109.51
107.336
107.776
107.634
109.257
107.257
109.732
106.965
109.918
106.897
109.891
107.025
109.727
107.262
109.502
107.49
109.37
107.546
109.465
107.382
107.768
107.623
109.249
107.241
109.731
106.944
109.915
106.888
109.892
107.022
109.71
107.282
109.466
107.526
109.33
107.584
109.434
107.412
107.76
107.618
109.23
107.246
109.709
106.955
109.898
106.898
109.879
107.03
109.695
107.3
109.437
107.565
109.286
107.632
109.393
107.449
106.928
109.92
106.863
109.895
107.012
109.69
107.311
109.409
107.596
109.247
107.671
109.36
107.657
107.179
107.651
107.176
107.644
107.174
107.638
107.173
107.633
107.172
109.69
106.533
110.074
106.428
110.155
106.572
110.026
106.843
109.78
107.154
109.517
107.384
109.387
107.432
107.627
107.171
109.669
106.542
110.045
106.445
110.123
106.595
109.992
106.87
109.744
107.185
109.481
107.419
109.351
107.468
107.621
107.17
109.65
106.549
110.02
106.46
110.096
106.615
109.962
106.895
109.71
107.214
109.446
107.453
109.317
107.504
107.615
107.167
109.631
106.554
109.996
106.472
110.07
106.632
109.932
106.918
109.676
107.243
109.409
107.49
109.278
107.544
109.367
107.368
107.609
107.164
109.614
106.558
109.977
106.479
110.048
106.646
109.905
106.939
109.643
107.272
109.372
107.527
109.241
107.583
109.334
107.403
107.602
107.158
109.599
106.556
109.96
106.481
110.031
106.652
109.886
106.951
109.618
107.294
109.342
107.559
109.206
107.619
109.302
107.435
107.595
107.153
109.585
106.555
109.947
106.481
110.014
106.66
109.866
106.967
109.588
107.322
109.303
107.597
109.166
107.66
109.269
107.47
107.588
107.145
109.574
106.547
109.943
106.468
110.007
106.656
109.858
106.969
109.574
107.335
109.281
107.624
109.136
107.691
109.243
107.494
107.58
107.139
109.559
106.546
109.932
106.462
109.993
106.659
109.84
106.982
109.544
107.362
109.241
107.663
109.093
107.734
109.207
107.53
106.452
109.988
106.649
109.837
106.977
109.536
107.371
109.222
107.689
109.064
107.766
109.183
107.566
108.037
107.559
108.032
107.552
108.028
107.546
108.023
107.54
108.02
108.789
107.982
109.025
107.706
109.162
107.613
109.241
107.665
109.19
107.714
109.119
107.786
109.073
107.811
107.534
108.015
108.775
107.983
109.007
107.71
109.142
107.622
109.219
107.677
109.168
107.73
109.097
107.807
109.052
107.832
107.528
108.011
108.761
107.984
108.99
107.715
109.126
107.63
109.201
107.684
109.15
107.743
109.079
107.828
109.032
107.855
107.521
108.006
108.748
107.982
108.974
107.717
109.111
107.633
109.181
107.691
109.128
107.758
109.055
107.851
109.01
107.878
109.062
107.808
107.515
108.001
108.735
107.981
108.959
107.72
109.098
107.637
109.164
107.692
109.113
107.768
109.037
107.872
108.988
107.903
109.041
107.832
107.508
107.994
108.724
107.975
108.947
107.717
109.087
107.636
109.15
107.692
109.097
107.779
109.017
107.893
108.967
107.925
109.023
107.85
107.501
107.988
108.712
107.972
108.933
107.718
109.072
107.641
109.137
107.692
109.086
107.788
108.999
107.913
108.944
107.951
109.003
107.872
107.494
107.979
108.702
107.963
108.925
107.708
109.07
107.631
109.131
107.687
109.078
107.795
108.983
107.932
108.923
107.973
108.986
107.889
107.486
107.972
108.69
107.958
108.914
107.704
109.064
107.625
109.122
107.683
109.07
107.803
108.966
107.954
108.898
108.001
108.965
107.909
107.692
109.07
107.604
109.12
107.669
109.067
107.808
108.952
107.973
108.875
108.025
108.946
107.225
105.996
107.218
105.991
109.03
106.295
109.319
106.822
109.326
107.211
105.986
109.018
106.295
109.305
106.824
109.31
107.245
109.232
107.457
107.205
105.982
109.005
106.296
109.288
106.827
109.294
107.25
109.216
107.461
109.165
107.701
108.988
107.871
107.199
105.979
108.991
106.297
109.272
106.831
109.28
107.256
109.201
107.464
109.149
107.711
108.976
107.882
108.857
107.945
107.193
105.976
108.978
106.299
109.256
106.834
109.266
107.261
109.185
107.468
109.129
107.723
108.959
107.899
108.844
107.959
108.921
107.187
105.973
108.965
106.301
109.24
106.836
109.254
107.266
109.169
107.471
109.11
107.734
108.943
107.917
108.832
107.973
108.905
107.838
107.182
105.969
108.952
106.302
109.224
106.841
109.254
107.259
109.15
107.47
109.089
107.745
108.924
107.937
108.821
107.987
108.887
107.856
107.176
105.966
108.939
106.303
109.21
106.844
109.244
107.261
109.133
107.466
109.069
107.757
108.905
107.955
108.808
108.002
108.87
107.876
109.053
107.169
105.962
108.927
106.302
109.197
106.844
109.235
107.263
109.119
107.463
109.05
107.768
108.886
107.972
108.791
108.022
108.855
107.895
109.045
107.163
105.957
108.914
106.301
109.183
106.844
109.225
107.265
109.106
107.471
109.034
107.78
108.866
107.991
108.772
108.043
108.838
107.916
109.036
107.157
105.953
108.902
106.299
109.171
106.839
109.22
107.262
109.1
107.477
109.022
107.789
108.85
108.008
108.754
108.064
108.823
107.933
109.029
107.15
109.091
107.485
109.006
107.802
108.83
108.03
108.73
108.089
108.803
107.953
107.485
108.998
107.811
108.814
108.048
108.71
108.11
108.786
107.147
106.71
107.14
106.703
108.258
108.302
109.303
109.269
109.86
107.133
106.696
108.25
108.295
109.294
109.264
109.853
109.676
110.133
109.922
107.127
106.69
108.242
108.289
109.286
109.259
109.846
109.674
110.128
109.925
110.328
110.185
110.513
110.299
107.121
106.684
108.234
108.283
109.278
109.254
109.838
109.671
110.123
109.931
110.324
110.184
110.51
110.294
110.506
110.378
107.115
106.678
108.226
108.277
109.269
109.249
109.83
109.669
110.119
109.941
110.319
110.183
110.5
110.294
110.506
110.375
110.525
107.109
106.673
108.218
108.271
109.261
109.244
109.823
109.667
110.114
109.954
110.314
110.18
110.487
110.295
110.509
110.369
110.511
110.262
107.104
106.668
108.21
108.265
109.254
109.24
109.82
109.663
110.109
109.971
110.309
110.177
110.47
110.296
110.512
110.348
110.495
110.257
107.098
106.662
108.202
108.259
109.246
109.236
109.814
109.661
110.106
109.993
110.305
110.173
110.454
110.288
110.51
110.318
110.479
110.253
110.418
107.092
106.656
108.194
108.252
109.239
109.231
109.808
109.658
110.103
110.017
110.3
110.17
110.436
110.279
110.489
110.313
110.467
110.247
110.411
107.086
106.65
108.186
108.246
109.232
109.226
109.801
109.654
110.098
110.027
110.294
110.165
110.418
110.268
110.464
110.296
110.451
110.241
110.404
107.08
106.644
108.177
108.239
109.226
109.22
109.794
109.649
110.092
110.028
110.289
110.159
110.4
110.253
110.436
110.281
110.431
110.234
110.397
107.074
110.087
110.037
110.286
110.154
110.381
110.236
110.403
110.262
110.402
110.224
110.05
110.299
110.147
110.358
110.215
110.349
110.235
110.354
108.554
108.118
108.421
108.433
108.395
108.451
108.418
108.426
108.563
108.337
108.178
108.37
108.421
108.427
108.351
108.421
108.434
108.445
107.831
108.502
108.794
108.446
108.791
108.418
108.567
108.106
108.503
108.422
108.461
108.71
108.363
108.45
108.315
108.457
108.375
108.401
108.674
108.419
108.223
108.396
108.384
108.564
108.402
108.263
108.416
108.474
108.52
108.427
108.367
108.421
108.496
108.337
108.551
108.593
108.405
108.316
108.361
108.566
108.421
108.395
108.398
108.427
108.372
108.538
108.495
108.498
108.384
108.53
108.507
108.356
108.314
108.368
108.513
108.436
108.391
108.375
108.452
108.428
108.789
108.41
108.388
108.448
108.404
108.341
108.485
108.739
108.354
108.402
108.375
108.36
108.332
108.424
108.682
108.321
108.49
108.255
108.38
108.323
108.594
108.11
108.245
108.301
108.273
108.281
108.453
108.519
108.153
108.273
108.124
108.326
108.47
108.526
108.507
107.97
108.529
108.577
108.515
108.483
108.212
108.417
108.477
108.574
108.579
108.419
108.295
108.319
108.245
108.416
108.339
108.468
108.483
108.164
108.438
108.396
108.18
108.374
108.198
108.319
107.145
108.317
108.067
108.877
108.065
108.875
108.96
106.708
108.957
106.921
109.293
106.919
109.291
108.312
107.137
108.309
108.06
108.87
108.057
108.867
108.952
106.7
108.95
106.914
109.285
106.912
109.283
107.89
108.255
107.887
109.065
108.497
109.063
108.494
107.528
108.298
107.525
108.53
107.809
108.527
107.807
107.312
109.299
107.309
109.377
107.701
109.374
107.698
106.911
109.266
106.908
109.125
107.231
109.123
107.229
107.03
109.858
107.027
109.636
107.377
109.633
107.374
108.305
107.13
108.302
108.053
108.863
108.05
108.859
108.946
106.693
108.942
106.907
109.278
106.904
109.275
107.882
108.247
107.878
109.057
108.488
109.054
108.485
107.522
108.292
107.519
108.524
107.803
108.52
107.8
107.304
109.29
107.3
109.369
107.693
109.366
107.689
106.906
109.261
106.902
109.12
107.226
109.117
107.223
107.022
109.85
107.019
109.629
107.369
109.626
107.367
106.726
109.674
106.723
109.416
107.058
109.414
107.056
106.917
110.131
106.915
109.783
107.222
109.781
107.221
106.547
109.921
106.546
109.628
106.946
109.628
106.945
108.298
107.123
108.295
108.046
108.856
108.043
108.852
108.939
106.686
108.935
106.901
109.271
106.897
109.268
107.874
108.238
107.87
109.049
108.48
109.045
108.477
107.516
108.285
107.512
108.517
107.796
108.514
107.793
107.296
109.282
107.291
109.361
107.684
109.357
107.68
106.901
109.255
106.897
109.115
107.22
109.111
107.217
107.015
109.842
107.011
109.621
107.362
109.618
107.359
106.723
109.671
106.72
109.413
107.055
109.411
107.053
106.912
110.126
106.911
109.778
107.218
109.776
107.216
106.546
109.925
106.545
109.629
106.945
109.629
106.945
106.649
110.326
106.649
109.9
107.145
109.899
107.143
106.373
110.184
106.372
109.743
106.835
109.742
106.834
106.525
110.512
106.527
110.053
106.991
110.052
106.992
106.268
110.296
106.268
109.849
106.728
109.848
106.728
108.292
107.116
108.287
108.04
108.85
108.035
108.845
108.933
106.68
108.928
106.895
109.264
106.891
109.26
107.866
108.229
107.861
109.041
108.472
109.037
108.468
107.511
108.279
107.506
108.511
107.79
108.507
107.786
107.288
109.273
107.283
109.352
107.676
109.348
107.671
106.897
109.25
106.892
109.11
107.215
109.106
107.211
107.009
109.834
107.005
109.614
107.355
109.611
107.352
106.721
109.668
106.718
109.411
107.052
109.408
107.05
106.909
110.121
106.908
109.773
107.214
109.771
107.213
106.546
109.932
106.545
109.631
106.946
109.631
106.946
106.65
110.322
106.649
109.896
107.139
109.894
107.137
106.375
110.182
106.374
109.743
106.835
109.741
106.833
106.531
110.507
106.533
110.049
106.993
110.046
106.994
106.272
110.292
106.274
109.848
106.732
109.847
106.735
106.445
110.506
106.447
110.05
106.886
110.052
106.89
106.318
110.376
106.318
109.939
106.78
109.935
106.778
108.286
107.109
108.28
108.034
108.843
108.028
108.838
108.927
106.673
108.922
106.889
109.258
106.884
109.252
107.859
108.221
107.853
109.033
108.464
109.028
108.459
107.505
108.272
107.5
108.505
107.784
108.501
107.779
107.28
109.264
107.274
109.344
107.667
109.34
107.662
106.892
109.244
106.886
109.105
107.21
109.1
107.205
107.003
109.826
106.999
109.608
107.349
109.604
107.345
106.72
109.665
106.716
109.408
107.05
109.406
107.046
106.909
110.116
106.908
109.769
107.212
109.767
107.21
106.549
109.944
106.548
109.632
106.948
109.631
106.947
106.651
110.316
106.649
109.891
107.133
109.889
107.13
106.377
110.18
106.375
109.742
106.835
109.74
106.833
106.533
110.495
106.534
110.041
106.996
110.036
106.997
106.282
110.293
106.288
109.847
106.743
109.846
106.749
106.449
110.508
106.453
110.054
106.898
110.058
106.907
106.319
110.372
106.318
109.928
106.777
109.92
106.774
106.551
110.52
106.553
110.069
107.006
110.063
107.006
108.28
107.102
108.273
108.028
108.838
108.022
108.831
108.922
106.667
108.915
106.883
109.251
106.878
109.245
107.852
108.212
107.845
109.025
108.457
109.02
108.451
107.5
108.265
107.494
108.499
107.778
108.494
107.772
107.272
109.255
107.266
109.337
107.659
109.331
107.653
106.888
109.238
106.882
109.1
107.205
109.095
107.2
106.998
109.819
106.994
109.602
107.343
109.598
107.339
106.719
109.662
106.714
109.407
107.047
109.404
107.043
106.91
110.111
106.909
109.765
107.21
109.762
107.208
106.552
109.957
106.551
109.632
106.951
109.632
106.951
106.651
110.311
106.65
109.886
107.126
109.884
107.123
106.378
110.177
106.376
109.741
106.835
109.739
106.832
106.535
110.48
106.536
110.029
107
110.022
107.001
106.299
110.294
106.306
109.846
106.759
109.845
106.767
106.458
110.512
106.465
110.061
106.919
110.065
106.93
106.321
110.363
106.32
109.909
106.774
109.9
106.772
106.554
110.505
106.557
110.053
107.003
110.047
107.003
106.364
110.26
106.371
109.802
106.831
109.803
106.837
108.274
107.095
108.266
108.023
108.832
108.015
108.824
108.916
106.66
108.909
106.878
109.244
106.871
109.237
107.845
108.203
107.837
109.017
108.449
109.011
108.442
107.495
108.258
107.487
108.493
107.771
108.488
107.765
107.266
109.247
107.258
109.329
107.651
109.324
107.644
106.886
109.234
106.879
109.096
107.202
109.091
107.197
106.996
109.814
106.991
109.597
107.339
109.593
107.334
106.716
109.658
106.71
109.405
107.045
109.402
107.04
106.913
110.106
106.913
109.761
107.21
109.759
107.21
106.557
109.975
106.557
109.637
106.957
109.638