/*--------------------------------*- C++ -*----------------------------------*\
  =========                 |
  \\      /  F ield         | OpenFOAM: The Open Source CFD Toolbox
   \\    /   O peration     | Website:  https://openfoam.org
    \\  /    A nd           | Version:  10
     \\/     M anipulation  |
\*---------------------------------------------------------------------------*/
FoamFile
{
    format      ascii;
    class       volVectorField;
    location    "0.05";
    object      U;
}
// * * * * * * * * * * * * * * * * * * * * * * * * * * * * * * * * * * * * * //

dimensions      [0 1 -1 0 0 0 0];

internalField   nonuniform List<vector> 
114955
(
(-0.115135 -0.00332702 -0.00107789)
(0.121229 -0.0154445 -0.00878254)
(-0.0470426 0.0052584 -0.0034362)
(0.0743846 -0.0161078 -0.00442904)
(-0.0179586 0.0168707 -0.0338835)
(0.0482875 -0.0129204 0.00931426)
(0.0174663 0.0030879 -0.0195917)
(-0.127655 -0.0203877 0.0198874)
(0.132706 -0.00461939 -0.0191993)
(-0.0504431 -0.0130736 0.00411772)
(0.0756051 -0.000876899 -0.0111381)
(-0.00192165 -0.00483788 -0.021757)
(0.02191 0.00104368 0.0013185)
(0.0302915 -0.00124517 -0.00146943)
(-0.120271 -0.029014 -0.00608745)
(0.128501 -0.00188776 -0.00429701)
(-0.043147 -0.0107433 0.00183591)
(0.0825295 -0.0133266 -0.0118309)
(-0.0159881 0.0280134 -0.00822813)
(0.0518537 -0.00908466 -0.00936601)
(0.0155521 0.0171759 -0.00940763)
(-0.135531 -0.0353059 0.00992084)
(0.150901 0.00350284 -0.00402191)
(-0.0615214 -0.0242296 0.00329476)
(0.113823 0.0132346 -0.00715713)
(0.00246435 0.00698017 -0.0218506)
(0.0112097 -0.00530532 -0.00717305)
(0.0320533 0.00315621 -0.00567002)
(0.442726 -0.00967602 -0.0209965)
(-0.289964 -0.0126152 0.030433)
(0.264195 -0.00463517 -0.0327722)
(0.410684 -0.025974 -0.0311351)
(-0.264026 0.02035 0.051012)
(0.297314 -0.0163246 -0.0548939)
(-0.18602 -0.0117412 0.0287985)
(0.118657 -0.0135367 -0.0320019)
(-0.0487735 -0.0083866 0.0169356)
(0.0320261 0.0166235 -0.00712489)
(0.00731977 -0.0281991 0.0099588)
(0.0577266 0.0071839 -0.03503)
(0.0278391 -0.00615214 0.027907)
(0.475025 0.0160669 0.0538641)
(-0.27607 -0.0412479 0.0123204)
(0.233244 0.00534769 -0.0128932)
(-0.127823 -0.0203438 0.017966)
(0.0988323 -0.00594484 -0.0253356)
(-0.0394608 -0.000323951 0.0198971)
(0.0365414 -0.0192727 -0.0118273)
(0.0096968 0.0283685 0.0131121)
(0.0673436 -0.0295065 -0.00511932)
(0.00109772 0.0145512 -0.043741)
(0.417801 0.0266776 0.0378488)
(-0.274573 -0.084133 0.00876144)
(0.318004 0.00898326 -0.0296132)
(-0.196645 -0.0322222 0.0180666)
(0.138759 0.00766957 -0.0255414)
(-0.0618513 -0.0119701 -0.00248422)
(0.0607466 -0.00344448 0.00107564)
(-0.00218559 -0.00503355 -0.0112626)
(0.0445976 -0.0156389 -0.00512881)
(0.0312613 -0.00655702 0.00924175)
(-0.128167 -0.0709655 -0.00522465)
(0.119256 0.0271583 -0.0100445)
(-0.0501994 -0.0119906 0.0145212)
(0.0446071 -0.00923885 -0.0754721)
(-0.00574576 -0.000885886 0.17506)
(0.0756295 -0.0321153 -0.0187451)
(0.0442327 -0.00885413 0.0231363)
(-0.166585 -0.0801967 -0.00585834)
(0.196475 0.0211245 0.00157689)
(-0.0975261 -0.00851361 -0.0659613)
(0.0696388 -0.0148725 0.119532)
(0.0107965 -0.00693697 0.0486065)
(0.0576196 -0.0169612 -0.0282875)
(0.0516981 -0.00284807 0.005023)
(0.190328 -0.0346635 0.0513738)
(-0.0856342 -0.00503384 -0.0769251)
(0.0637459 -0.00457437 0.115657)
(0.0142136 0.00406838 0.0425436)
(0.0602239 -0.00436462 -0.0295421)
(0.0536938 -0.00878456 0.00591199)
(0.212997 -0.0365932 0.0294634)
(-0.0672411 -0.014162 -0.00779583)
(0.0624782 -0.0150819 -0.0497559)
(-0.00779815 0.00128886 0.136369)
(0.074004 0.00816788 0.00827806)
(-0.311704 0.118712 0.0774326)
(0.166622 -0.110305 -0.0813052)
(-0.0989444 0.0693129 0.0702837)
(0.129284 -0.0617068 -0.0502567)
(-0.0606137 0.010935 -0.00662415)
(0.0723153 -0.0214363 -0.0197304)
(-0.015562 0.0151075 -0.00462705)
(0.0516213 -0.0247446 -0.000418461)
(0.0113449 0.0199222 0.000907956)
(-0.249651 0.0376291 0.0596661)
(0.184141 -0.0604946 -0.0559616)
(-0.0954041 0.0527347 0.0557015)
(0.0742858 -0.0623066 -0.0323082)
(-0.0297939 0.0497032 0.036158)
(0.0987562 -0.0343334 -0.0414495)
(-0.0340823 -0.00190642 0.000915396)
(0.0565457 0.000266266 -0.00842951)
(0.0186089 -0.014719 -0.000332965)
(0.449286 -0.025001 -0.121201)
(-0.246616 0.00984668 0.140199)
(0.183561 -0.0351888 -0.182023)
(-0.105429 0.0115209 0.242584)
(0.135126 -0.0548882 -0.104687)
(-0.00527209 0.0319267 0.0909112)
(0.0117101 -0.0247524 -0.180589)
(0.0208898 0.0160084 0.0416648)
(0.0389565 -0.0386776 -0.0124204)
(0.0233324 0.0263734 0.0196241)
(0.436178 0.077236 -0.0640296)
(-0.260701 -0.0380478 -0.00211758)
(0.177164 0.0104184 0.0145428)
(-0.0749962 -0.00922208 0.198514)
(0.109543 -0.0306135 -0.146386)
(-0.0179244 0.0110848 0.081444)
(0.0975323 -0.0464591 -0.0380642)
(-0.0555221 0.0639824 -0.133375)
(0.0661163 -0.0445179 0.046865)
(0.0322357 -0.0106127 -0.0279795)
(0.483148 0.0791342 -0.193298)
(-0.318499 -0.0791596 0.309918)
(0.244772 0.027624 -0.163656)
(-0.129482 -0.0311077 0.164061)
(0.137029 0.000987513 -0.120501)
(-0.0282825 -0.0353115 0.0677111)
(0.092463 0.000973399 -0.0323674)
(-0.00191276 -0.0265749 -0.0899788)
(-0.0377787 0.031691 0.0465011)
(0.0707153 -0.019493 -0.000322853)
(0.469372 0.0370606 0.0229038)
(-0.309634 -0.113315 -0.0558325)
(0.227297 0.0636516 0.0489285)
(-0.0968479 -0.0350046 0.200901)
(0.11126 0.0151702 -0.146766)
(-0.0132025 -0.0178372 0.0830239)
(0.0630308 -0.078747 -0.069309)
(-0.0207683 0.16978 0.0277811)
(0.0833208 -0.0528147 -0.0263686)
(0.0453852 0.0553922 0.00702424)
(0.442807 0.059356 -0.050925)
(-0.290171 -0.118322 0.098106)
(0.289435 0.0680589 -0.161919)
(-0.190685 -0.0588198 0.204328)
(0.184388 0.056786 -0.0891915)
(-0.115735 -0.0912068 0.0697141)
(0.243088 0.11678 -0.0318762)
(-0.444587 -0.0671738 -0.0670065)
(0.36769 0.440994 0.411869)
(0.0725985 0.411286 0.39124)
(0.449428 0.0119406 0.0560589)
(-0.302928 -0.0835672 -0.0552426)
(0.294139 0.0242766 0.0459959)
(-0.150332 -0.090223 -0.0418638)
(0.0750393 0.0766285 0.0704439)
(0.0782272 -0.122088 0.104945)
(-0.315756 0.220109 -0.103583)
(0.310937 0.411453 0.440822)
(0.0809414 0.0636478 0.463829)
(0.0466866 0.179642 0.511804)
(-0.277748 -0.0872249 -0.0090498)
(0.281194 0.028843 -0.0187413)
(-0.136879 -0.0779948 -0.0125938)
(0.121508 0.0165318 0.0531015)
(0.0228717 0.0656123 0.134548)
(-0.294912 -0.207578 -0.0947703)
(0.520955 0.0363742 0.466663)
(-0.00693921 0.0871902 0.474114)
(0.0207618 0.0792243 0.517928)
(0.30177 -0.0114676 0.0314482)
(-0.163668 -0.046756 -0.00313015)
(0.20749 -0.0174516 -0.0286012)
(-0.141723 0.0359824 0.144053)
(0.25838 -0.112447 -0.0244776)
(-0.37108 -0.0190597 -0.0369627)
(0.557003 0.0484364 0.476734)
(-0.583205 0.0949783 -0.00411669)
(0.442996 -0.129749 -0.0190728)
(-0.238786 0.091443 0.369838)
(0.262475 -0.103604 -0.22982)
(-0.119195 0.087907 -0.0355762)
(0.0412178 -0.0610518 0.045851)
(-0.0376141 0.0540438 -0.0372891)
(0.0783086 -0.0567283 0.0243146)
(0.0083719 0.00149226 -0.0464315)
(0.0520116 -0.0110978 0.0309487)
(0.00736449 1.41154e-05 -0.0193247)
(-0.533746 0.0572345 0.31797)
(0.405847 -0.100346 -0.429856)
(-0.253065 0.104824 0.391899)
(0.232072 -0.174694 -0.278429)
(-0.126899 0.218707 0.189281)
(0.152965 -0.132388 -0.096471)
(-0.0552627 0.12351 -0.0850371)
(0.0190006 -0.215821 0.0306866)
(0.0261568 0.0642222 0.025502)
(0.0434865 -0.0305968 -0.0367258)
(0.0358343 0.0340668 0.0307036)
(-0.586622 -0.0309505 0.253854)
(0.486757 -0.00320739 -0.501187)
(-0.352291 -0.0754376 0.358144)
(0.330468 0.0547198 -0.223939)
(-0.468989 0.026552 0.0881527)
(0.406702 0.358323 0.376852)
(-0.04823 0.509382 0.526037)
(-0.400415 0.0359958 0.0139869)
(0.1368 -0.158259 -0.161232)
(0.0212682 0.0576061 0.107289)
(-0.02074 -0.0384094 -0.05875)
(-0.523621 -0.00871515 0.306076)
(0.358863 -0.0582081 -0.427569)
(-0.204364 0.192589 0.401639)
(-0.130259 -0.103541 -0.308258)
(0.126672 0.395245 0.545345)
(0.104904 -0.00608565 0.404417)
(-0.0399653 0.0961027 0.623506)
(-0.0276977 0.676144 0.439063)
(-0.402809 -0.181999 0.0769411)
(0.139181 0.065751 -0.192273)
(0.0290019 -0.0211961 0.109556)
(0.684499 0.101744 -0.0232564)
(-0.719869 -0.0729477 0.309061)
(0.844571 0.366283 0.170994)
(-0.257362 0.0430163 0.650774)
(0.00940386 0.062966 0.416211)
(-0.0530414 0.0800979 0.617242)
(0.0401507 0.156829 0.55465)
(-0.327305 0.199394 0.00968654)
(0.182906 -0.127699 -0.0504174)
(-0.128157 0.0697431 -0.198583)
(0.422302 0.176083 -0.122163)
(-0.267018 -0.292892 0.266418)
(-0.0801264 0.170089 -0.279666)
(0.326056 -0.0551101 0.604245)
(0.00788923 0.0351314 0.391718)
(-0.0818605 0.0200951 0.638483)
(0.0160711 -0.0699789 0.485927)
(-0.0178411 0.686378 0.428743)
(0.103503 0.370972 0.423198)
(0.0412075 0.431761 0.417755)
(0.559729 0.0339725 -0.00317347)
(-0.40924 -0.0466951 0.0324106)
(0.372578 -0.00492051 0.0262512)
(-0.394818 -0.167895 0.134977)
(0.658288 0.0926997 0.385388)
(-0.1469 0.0423208 0.585657)
(0.0399574 0.101353 0.550068)
(0.0197155 0.273581 0.45065)
(0.099825 0.281844 0.259733)
(0.0850166 0.30842 0.347416)
(0.440324 0.0958615 0.0099151)
(-0.28551 -0.19872 0.0434071)
(0.309343 0.180436 -0.0681763)
(-0.149012 -0.288495 0.197867)
(-0.10568 0.258375 -0.179944)
(0.213122 0.021059 0.664753)
(0.020797 0.0804472 0.37055)
(0.0851493 0.103303 0.32669)
(0.128106 0.0990736 0.56149)
(0.0574192 0.139223 0.614311)
(-0.326224 -0.0338746 -0.00548379)
(0.289561 -0.0449814 0.00757822)
(-0.0763601 0.0121906 0.0297609)
(-0.216312 -0.136846 0.0281657)
(0.367158 -0.0673956 0.619674)
(-0.0525662 -0.00988035 0.370459)
(0.171856 0.0802198 0.555809)
(0.0490287 0.0786166 0.702504)
(0.0529008 0.0654664 0.636506)
(0.35891 0.0157842 0.0280993)
(-0.230561 -0.0194414 -0.0188948)
(0.354526 -0.120892 0.0443826)
(-0.303938 0.109667 0.0210702)
(0.301422 0.0670639 0.569199)
(-0.00225289 0.0946281 0.479402)
(0.223408 0.0894968 0.572576)
(0.492651 -0.19882 -0.0547391)
(-0.340401 0.166719 0.0617357)
(0.178471 -0.139828 -0.0480687)
(-0.111671 0.110959 0.0245696)
(0.138264 -0.0864124 -0.0113426)
(-0.0780638 0.0328138 -0.0229731)
(0.0971337 -0.0355517 0.0187466)
(-0.0339838 0.0277561 -0.0151561)
(0.0644192 -0.0290514 0.0109553)
(0.00433024 0.0242742 -0.00877742)
(0.415381 -0.113779 -0.0679692)
(-0.226003 0.466801 0.0636993)
(0.2433 -0.326558 -0.0674656)
(-0.137921 0.0161373 0.0533374)
(0.0888547 -0.00407654 -0.0176751)
(-0.0484163 0.00800321 0.0189887)
(0.104802 -0.00970127 -0.0287732)
(-0.0346034 -0.028074 0.0212695)
(0.0522741 0.0158483 -0.0154802)
(0.0191223 -0.0127486 0.0123738)
(-0.49446 0.36954 0.263772)
(-0.0327264 -0.585577 -0.502186)
(-0.265624 0.728621 0.631304)
(0.324103 0.160242 0.236162)
(-0.423476 0.253479 0.17494)
(0.184404 -0.17 -0.0959393)
(-0.10818 -0.0575266 -0.138715)
(0.0601698 0.0166439 0.117516)
(-0.0100033 0.0346266 -0.0436522)
(0.0795487 -0.0533095 0.031292)
(-0.00435312 0.0434096 -0.0129405)
(-0.896626 0.34153 0.337615)
(0.770349 0.283889 0.13795)
(-0.199789 0.42188 0.827518)
(0.209072 0.147974 0.210289)
(-0.119999 0.75072 0.568892)
(0.1663 0.307875 0.4192)
(-0.425946 0.173105 0.0885545)
(0.196689 -0.116312 -0.190173)
(-0.110748 -0.123133 0.112903)
(0.0601013 0.0830066 -0.0569378)
(0.0369304 -0.0551947 0.0373401)
(-0.931482 -0.0174338 0.307654)
(0.841946 0.155811 0.187108)
(-0.176332 0.0953981 0.732972)
(0.156628 0.112349 0.379636)
(-0.010475 0.299618 0.53903)
(0.160664 0.0875456 0.209747)
(-0.0639319 0.760995 0.226545)
(0.0499771 0.389754 0.69081)
(-0.352844 0.0869902 -0.170214)
(0.127807 -0.194531 0.0593737)
(-0.0366271 0.110422 -0.0113639)
(-0.882821 -0.332487 0.322562)
(0.935577 -0.00236855 0.101427)
(-0.254395 -0.0422646 0.894953)
(0.076132 -0.00874764 0.205592)
(0.0494237 0.0590185 0.371659)
(0.154896 0.0814015 0.61933)
(0.0308015 0.262441 0.530405)
(0.07897 0.157081 0.190588)
(-0.0878587 0.679861 0.648369)
(-0.306237 -0.0579898 -0.199891)
(0.124336 -0.138878 0.0377009)
(-0.508062 -0.349761 0.220959)
(0.0458559 0.47567 -0.375146)
(0.0223478 -0.312059 0.45999)
(0.0785662 -0.13315 0.0865094)
(-0.0169502 -0.0118096 0.787551)
(-0.00024748 0.0443342 0.661261)
(-0.00710038 0.0743914 0.607956)
(0.0128132 0.117618 0.414074)
(0.0113401 0.147384 0.771699)
(0.0191314 0.689933 0.416836)
(-0.242524 -0.0435466 -0.0234116)
(0.677525 0.0652919 -0.0389133)
(-0.580975 -0.391559 0.374731)
(0.80682 0.145034 0.219414)
(0.000518003 -0.0336927 0.597263)
(-0.0323477 0.0229004 0.709098)
(-0.0428681 0.038197 0.656355)
(-0.00147383 0.0387163 0.560709)
(0.037506 0.226281 0.347793)
(0.0930382 0.184551 0.269169)
(0.034657 0.786509 0.253425)
(0.492721 0.195972 -0.0837859)
(-0.269478 -0.349152 0.150539)
(-0.0301394 0.284837 -0.174842)
(0.276742 -0.147583 0.551789)
(0.0737283 0.0149064 0.446836)
(-0.0924847 0.0451638 0.699406)
(-0.0188136 0.0901173 0.574182)
(0.0688947 0.283644 0.525368)
(0.0160889 0.372556 0.362331)
(0.108704 0.530274 0.220679)
(0.524304 0.0470624 0.00821811)
(-0.38198 -0.125222 0.00765261)
(0.443616 0.00595064 0.00620185)
(-0.391231 -0.228196 0.17694)
(0.629984 0.0877435 0.384311)
(-0.176567 0.0176431 0.502023)
(-0.229555 0.156015 0.541982)
(-0.204061 0.421299 0.617349)
(-0.170248 0.30826 0.614141)
(-0.0534756 0.39733 0.455462)
(-0.299579 -0.167548 0.0375699)
(0.320761 0.125824 -0.0797519)
(-0.122039 -0.299954 0.190577)
(0.0282911 0.247748 -0.261761)
(0.176627 -0.0378289 0.415952)
(-0.181437 -0.150118 0.522093)
(-0.31428 0.0180246 0.604942)
(0.0443597 0.0967322 0.649629)
(0.0422317 0.0648868 0.474762)
(0.318729 0.0190744 0.0174896)
(-0.145564 -0.121642 -0.0141438)
(0.0360252 0.0220231 0.0276969)
(0.0477183 0.0376726 0.612352)
(0.0622757 -0.0397796 0.371114)
(0.0269506 -0.0348172 0.691694)
(-0.151879 -0.0028591 0.558791)
(-0.549989 0.153048 0.0340641)
(0.459696 -0.178346 -0.0649288)
(-0.287761 0.171951 0.00428881)
(0.218354 -0.142987 -0.0153439)
(-0.119805 0.131166 0.0361491)
(0.0852094 -0.0787791 -0.0187932)
(-0.0466883 0.0710223 -0.0193097)
(0.10414 -0.0697689 0.0140394)
(-0.0353997 0.046087 -0.00953383)
(0.0614052 -0.0355373 0.00514588)
(0.010849 0.0276468 -0.00129348)
(-0.536496 0.394496 -0.0321978)
(0.418378 -0.570694 0.0255374)
(-0.283214 0.495118 -0.0119368)
(0.219639 -0.377201 -0.00267932)
(-0.115384 0.271061 0.00795004)
(0.144885 -0.131824 -0.0099677)
(-0.107682 -0.0775881 0.0462348)
(0.0836808 0.044626 -0.0423115)
(-0.00326077 -0.00690039 0.0274303)
(0.0353378 -0.00194065 -0.0132821)
(0.0244335 0.0175601 0.00492904)
(-0.917939 0.393701 0.335456)
(0.880302 0.0573442 0.334998)
(-0.259846 0.874059 0.357931)
(0.255462 0.151777 0.133662)
(-0.121628 0.596451 0.679047)
(0.210098 0.293965 0.328906)
(-0.469973 0.160969 -0.12332)
(0.150968 -0.198057 0.0749695)
(-0.0827237 0.10201 -0.0144029)
(0.0865038 -0.0552603 0.00500123)
(-0.0103492 0.0262166 0.0134932)
(-1.00781 0.053775 -0.0849199)
(0.788748 0.0240045 0.0156825)
(-0.136401 0.548877 0.481545)
(-0.0259116 0.575924 0.523399)
(0.054338 0.43542 0.355404)
(0.16175 0.0872591 0.0654002)
(-0.117945 0.687859 0.671227)
(-0.346359 -0.0912511 -0.253267)
(0.128314 -0.0499591 0.111316)
(-0.039945 0.00174924 -0.0364718)
(0.0711523 0.0351803 0.00173475)
(-0.974865 -0.0441262 0.0489868)
(0.762393 0.220469 0.12547)
(0.234262 0.154379 0.770667)
(0.00708656 0.106439 0.702947)
(-0.102639 0.635289 0.749368)
(-0.248089 0.413529 0.2438)
(0.0233532 0.292588 0.169362)
(0.11903 0.72636 0.0797211)
(-0.301113 -0.0167384 0.00901951)
(0.160375 -0.0701009 -0.0416362)
(-0.112234 -0.0380828 0.0733052)
(-0.944899 -0.0664493 -0.107735)
(0.839068 0.0586244 0.107555)
(-0.134184 -0.239458 0.633452)
(-0.0996654 -0.0302007 0.695564)
(-0.158036 0.208785 0.742366)
(0.00109543 0.288555 0.345225)
(-0.0230835 0.723758 0.164981)
(-0.124705 0.44071 0.00537047)
(-0.00038526 0.739022 0.192702)
(-0.34006 -0.0542392 0.0264459)
(0.274969 0.00603464 -0.105262)
(-0.883242 -0.459341 0.307527)
(1.03246 0.0247187 0.198884)
(-0.161641 -0.157248 0.309891)
(-0.200336 -0.31432 0.55531)
(-0.220885 0.0983513 0.527774)
(-0.0794893 0.244043 0.666337)
(-0.101814 0.205896 0.581554)
(-0.163833 0.367819 0.28062)
(0.225375 0.0763708 0.264449)
(0.0614478 0.719013 0.143405)
(-0.543783 -0.00798757 0.178896)
(0.0449694 0.434685 0.137982)
(0.0207139 -0.411909 0.522811)
(-0.023491 -0.0382213 -0.00946721)
(-0.114234 -0.368904 0.676916)
(-0.0706687 -0.156508 0.784241)
(-0.049658 0.0347486 0.58353)
(-0.0576919 0.206021 0.439063)
(-0.0836981 0.712826 0.495715)
(0.191469 0.377279 0.0448668)
(-0.0147715 0.669581 0.149186)
(0.655521 0.0795653 -0.153707)
(-0.617164 -0.486694 0.240983)
(0.856001 0.12898 0.305216)
(-0.128793 -0.263383 0.343591)
(-0.0610025 -0.374102 0.590918)
(-0.0317864 -0.227014 0.667288)
(-0.0421943 0.0853974 0.527235)
(0.00599263 0.458685 0.456169)
(-0.0507707 0.23124 0.171116)
(0.0954341 0.612444 0.381854)
(0.471878 0.175302 0.0817855)
(-0.29498 -0.314277 -0.116082)
(-0.0553428 0.228851 0.139471)
(0.261815 -0.258828 0.547949)
(-0.0364722 -0.195639 0.0099508)
(-0.0798495 -0.271252 0.590841)
(-0.0151757 -0.0585781 0.627609)
(0.0405994 0.181507 0.291846)
(0.0642458 0.348107 0.22747)
(0.121651 0.290179 0.132161)
(-0.440996 -0.24013 0.178454)
(0.688594 -0.00928073 0.355787)
(-0.2522 -0.204178 0.100832)
(0.216587 -0.113498 0.351108)
(0.0740877 -0.0150734 0.260226)
(1.21113 -0.187967 -0.496015)
(0.147486 0.0868708 -0.0755067)
(0.061352 0.0427885 0.24769)
(-0.157052 -0.00902981 0.146926)
(-0.0948069 -0.0274772 0.124434)
(0.579594 0.0467103 -0.291299)
(-0.550976 0.148161 -0.0935615)
(0.462552 -0.178362 0.113463)
(-0.290557 0.18315 -0.0419361)
(0.210399 -0.151427 0.0313479)
(-0.114703 0.142541 -0.0131744)
(0.0809233 -0.0899498 -0.0204809)
(-0.0451441 0.0795539 0.0321235)
(0.107349 -0.0776323 -0.0225497)
(-0.0432286 0.0542125 0.0109672)
(0.0729976 -0.0425562 -0.00577435)
(-0.000734784 0.0301112 -0.00320018)
(0.649186 -0.156618 0.0245809)
(-0.538977 0.393275 -0.0314741)
(0.439213 -0.582372 0.0271485)
(-0.297194 0.507964 -0.026782)
(0.229729 -0.398728 0.0162655)
(-0.129525 0.295606 -0.0243751)
(0.14629 -0.170173 0.0197269)
(-0.107052 -0.0851267 -0.0473971)
(0.0854723 0.0598954 0.0394195)
(-0.00365084 -0.0332973 -0.0320562)
(0.0288719 0.0155013 0.0153534)
(0.0341175 0.00258725 -0.00793223)
(0.887096 -0.161038 0.115078)
(-0.914962 0.376599 -0.395748)
(1.06524 0.0256842 0.154844)
(-0.370041 0.876371 0.022837)
(0.23116 0.142865 0.0354348)
(-0.0096042 0.690029 0.138052)
(0.269317 0.319205 -0.0796684)
(-0.431355 0.171386 0.224671)
(0.132447 -0.213176 -0.13413)
(-0.0885572 0.121743 0.0562125)
(0.109012 -0.0782308 -0.0305182)
(-0.0350235 0.0399543 -0.00456201)
(0.863222 -0.0758485 0.0518139)
(-1.00067 0.0439612 0.0120811)
(0.933626 0.127157 0.260079)
(0.0822537 0.918369 0.0109373)
(0.0139614 0.74903 -0.00941073)
(-0.162836 0.865839 0.474087)
(0.225937 0.148772 0.00847183)
(0.0492632 0.773066 0.00754343)
(-0.32738 -0.105839 0.233592)
(0.118979 -0.0923777 -0.122019)
(-0.0522094 0.0353941 0.0484008)
(0.098246 0.00673294 -0.00964985)
(0.899525 -0.00380792 0.0754492)
(-0.985979 -0.0415872 -0.112635)
(0.825989 0.121883 0.138087)
(0.238003 0.143376 0.0599103)
(0.358308 0.247692 0.0745195)
(-0.0062079 0.59369 0.288777)
(-0.0680709 0.793708 -0.0313489)
(0.189652 0.312587 0.00217704)
(0.229426 0.6936 -0.0640802)
(-0.319618 -0.00305928 0.175402)
(0.190953 -0.12169 -0.0736428)
(-0.158542 -0.00137725 -0.0179105)
(-0.940896 -0.0589453 0.0374753)
(0.936734 0.131948 0.220854)
(0.382569 -0.321865 0.0180436)
(0.13826 -0.323769 -0.0487926)
(1.37675 0.237396 0.253454)
(0.245929 0.342675 -0.0850775)
(-0.0207489 0.762294 -0.00216916)
(-0.0673871 0.53868 0.11471)
(0.0353683 0.778739 -0.07603)
(-0.361903 -0.0795941 0.151453)
(0.332912 -0.00606164 0.0281068)
(-0.880843 -0.44393 -0.362502)
(1.20099 -0.108269 0.11616)
(-0.235762 -0.335232 0.154045)
(0.14161 -0.401042 -0.0427277)
(0.253549 -0.180063 0.0203335)
(1.17006 0.058575 -0.020741)
(0.693066 0.286867 -0.0862771)
(0.0978358 0.385357 -0.0494741)
(0.223187 0.190536 0.0502957)
(0.117588 0.73065 -0.0486094)
(-0.590772 -0.0254862 0.00505072)
(0.063772 0.451985 -0.0926319)
(0.277937 -0.490802 0.0312311)
(-0.066787 -0.222685 0.0372328)
(-0.00289545 -0.397584 -0.0739103)
(0.288765 -0.190699 -0.0794422)
(0.715581 0.0876578 -0.0592337)
(0.113932 0.655883 -0.0343914)
(-0.163277 0.506458 0.168418)
(-0.107127 0.704354 0.0438147)
(0.661617 0.0907835 0.194201)
(-0.621423 -0.506412 -0.279141)
(1.02053 -0.0211831 0.039307)
(-0.243957 -0.306828 -0.104164)
(0.15192 -0.470818 -0.175099)
(0.141155 -0.23191 -0.0484312)
(1.42934 0.291662 0.0516024)
(0.976553 0.266578 -0.109884)
(0.150516 0.23097 0.0344666)
(0.472126 0.181895 -0.033646)
(-0.295974 -0.327553 0.0724251)
(-0.0624645 0.257148 -0.11624)
(0.451065 -0.356627 0.000561385)
(-0.111622 -0.261204 0.0106409)
(0.113297 -0.286386 -0.0365657)
(0.219147 -0.248183 -0.0371526)
(1.258 0.490132 -0.219941)
(-0.455067 -0.277413 -0.16822)
(0.83866 -0.129152 0.0677576)
(-0.281482 -0.186029 0.0641165)
(0.18401 -0.125919 -0.0306801)
(0.152195 -0.13051 -0.0332474)
(0.230259 0.124815 0.00811699)
(-0.0917995 0.128644 0.0837326)
(-0.346644 0.13661 0.0824773)
(-0.497347 0.153468 -0.104311)
(0.51165 -0.203003 0.118604)
(-0.372362 0.169305 -0.111963)
(0.249177 -0.155259 0.0878478)
(-0.173761 0.127013 -0.0536242)
(0.13138 -0.0874389 0.0356595)
(-0.0478856 0.0416466 0.00441471)
(0.081871 -0.0410544 -0.00258943)
(-0.017796 0.0258095 0.00548087)
(0.0465843 -0.0264259 -0.0042747)
(0.0242636 0.025658 0.00217881)
(-0.637746 0.0601313 -0.0628323)
(0.639827 -0.0864695 0.0705547)
(-0.576424 0.085828 -0.126818)
(0.421498 -0.122599 0.136207)
(-0.254526 0.480658 -0.0605154)
(0.24405 -0.376175 0.0570498)
(-0.0995591 0.29335 -0.0424166)
(0.0745612 -0.289286 -0.0123348)
(-0.0662294 0.135047 -0.01133)
(0.09999 -0.0788844 0.0178641)
(-0.0294182 0.0407995 -0.0170124)
(0.0603502 -0.0274055 0.0145202)
(0.00648434 0.016206 -0.0141047)
(-0.64321 0.106895 -0.101255)
(0.627717 -0.145582 0.13187)
(-0.507941 0.384405 -0.341573)
(-0.0160754 -0.580265 0.596259)
(-0.0455835 0.823018 -0.329252)
(0.36727 0.094646 -0.118847)
(-0.15567 0.710956 -0.0929468)
(-0.381803 -0.108256 0.043675)
(0.119358 -0.0467273 0.104123)
(-0.00944343 -0.00890197 -0.0638564)
(0.0334758 0.00599015 0.0330153)
(0.0222202 -0.0194898 -0.0249104)
(0.0459636 0.0245886 0.0116854)
(-0.744245 0.0615849 -0.127613)
(0.94375 -0.12106 0.177793)
(-0.866088 0.345201 -0.492165)
(1.06473 0.13732 0.170221)
(-0.0900842 0.677857 -0.299904)
(0.161528 0.583865 -0.309548)
(-0.111648 0.323958 -0.0451624)
(0.0822526 0.62095 -0.105241)
(-0.342254 0.0363992 0.0175507)
(0.126158 -0.147127 0.115093)
(-0.0409633 0.0584786 -0.0644222)
(0.0791478 -0.0459629 0.0433904)
(-0.011515 0.0210668 -0.0316319)
(-0.740636 -0.013872 -0.123923)
(0.868175 -0.0191464 0.164512)
(-0.906379 -0.0175135 -0.470553)
(1.03861 0.0701621 0.137577)
(-0.367591 -0.0695011 -0.428504)
(-0.132366 0.253786 -0.468282)
(-0.213053 0.784842 -0.369764)
(0.177135 0.25971 -0.0539849)
(0.0530453 0.749704 -0.176749)
(-0.279322 -0.0502385 0.101844)
(0.10739 -0.0821227 0.0987868)
(-0.0153983 0.0112054 -0.057857)
(0.0933563 0.00243739 0.0213384)
(-0.744769 -0.075184 -0.12303)
(0.940657 0.0694857 0.167315)
(-0.863338 -0.32878 -0.462402)
(1.14073 0.0695996 -0.00732886)
(-0.26881 -0.00722163 -0.340453)
(0.162085 -0.172941 -0.418784)
(-0.100146 0.0529664 -0.445625)
(-0.155894 0.744832 -0.315423)
(0.213611 0.546975 -0.278092)
(0.172677 0.755062 -0.117413)
(-0.277754 -0.0129909 0.0597553)
(0.135163 -0.10479 0.131159)
(-0.0607411 0.00936535 -0.0266979)
(-0.655842 -0.123788 -0.0937212)
(0.652374 0.0895557 0.106832)
(-0.527949 -0.360937 -0.296998)
(0.0901173 0.4767 0.481497)
(0.253149 -0.314925 -0.27904)
(-0.0615828 -0.248085 -0.249393)
(-0.0263057 -0.0807526 -0.518959)
(-0.0855696 0.105761 -0.405044)
(-0.177708 0.20329 -0.305815)
(-0.0670542 0.441457 -0.244383)
(0.0510181 0.733005 -0.160045)
(-0.299136 -0.0514444 0.0657571)
(0.281012 -0.00355959 0.0486975)
(-0.654652 -0.0809163 -0.0515519)
(0.686296 0.035415 0.0671636)
(-0.643334 -0.107551 -0.0626523)
(0.686388 0.0732336 0.111552)
(-0.581119 -0.412467 -0.389448)
(0.892828 0.0131617 0.0603681)
(-0.382671 -0.463122 -0.566348)
(-0.087857 -0.153979 -0.558475)
(-0.158925 0.0140574 -0.579384)
(-0.104059 0.157384 -0.341731)
(-0.080817 0.494251 -0.242701)
(-0.0374101 0.726247 -0.0344207)
(0.0468804 0.543388 -0.0653803)
(-0.611316 -0.0960518 -0.0484297)
(0.614296 0.0521624 0.056016)
(-0.505196 -0.179647 -0.106351)
(0.505352 0.184355 0.143554)
(-0.291577 -0.342006 -0.207711)
(-0.0315364 0.286663 0.197652)
(0.370095 -0.202375 -0.261626)
(-0.0374711 -0.360049 -0.267369)
(0.114103 -0.155979 -0.458399)
(-0.0943851 0.0715089 -0.521401)
(-0.0509594 0.256016 -0.251308)
(-0.00249749 0.791715 -0.225354)
(0.536547 0.0406196 0.049263)
(-0.410086 -0.111752 -0.0542351)
(0.463491 -0.0167107 0.0329198)
(-0.412146 -0.192159 -0.222173)
(0.727481 -0.145186 -0.00627938)
(-0.461839 -0.210822 -0.40393)
(-0.0337332 -0.0357936 -0.445416)
(-0.118738 0.232896 -0.262578)
(0.0124081 0.320636 -0.155806)
(0.101934 0.130578 0.234659)
(0.0530952 0.0408769 0.0453061)
(-0.163229 -0.0290224 -0.0602727)
(0.169571 0.0357139 -0.11257)
(-0.494091 0.0654335 -0.0658119)
(0.454603 -0.0896842 0.0667262)
(-0.322001 0.149103 -0.125299)
(0.272489 -0.147168 0.0958751)
(-0.167583 0.11541 -0.0846178)
(0.140859 -0.114061 0.0683358)
(-0.0853537 0.0817298 -0.0359915)
(0.108829 -0.0685268 0.0213189)
(-0.0449282 0.0450812 -0.0105926)
(0.0696129 -0.0345178 0.00538349)
(0.00191447 0.0224957 -0.0040986)
(-0.587443 0.0440155 -0.0561521)
(0.57445 -0.0778263 0.0619936)
(-0.497959 0.101723 -0.116652)
(0.52436 -0.167876 0.14669)
(-0.394204 0.181478 -0.126146)
(0.266985 -0.160008 0.104232)
(-0.175354 0.145094 -0.0924251)
(0.157364 -0.0816532 0.0532097)
(-0.0665361 0.0119913 -0.0260062)
(0.0792969 -0.00719274 0.0225039)
(-0.00728452 -0.00583468 -0.0166975)
(0.0318711 -0.00625484 0.0141117)
(0.0341115 0.0124949 -0.0154574)
(-0.634221 0.0179701 -0.063663)
(0.630379 -0.05215 0.0671412)
(-0.57936 -0.0170207 -0.091162)
(0.49848 -0.0478331 0.095122)
(-0.274455 0.415704 -0.430747)
(0.2326 -0.378733 0.345208)
(-0.0442329 0.244741 -0.251024)
(-0.0189354 -0.279359 0.252756)
(-0.0152565 0.168047 -0.110991)
(0.0907079 -0.122608 0.050577)
(-0.0444418 0.0709009 -0.022842)
(0.0877465 -0.0483619 0.00939265)
(-0.0184096 0.0216749 -0.00540828)
(-0.608263 0.00302739 -0.118727)
(0.550276 -0.0324355 0.133708)
(-0.471486 -0.0363341 -0.404798)
(-0.00422875 -0.00776233 0.549329)
(-0.0173591 0.72765 -0.474717)
(0.397776 0.121808 -0.0803334)
(-0.158373 0.650773 -0.189937)
(-0.328732 -0.0773203 0.0873667)
(0.0685042 -0.0456974 0.0471764)
(-0.0186604 0.0216879 0.002561)
(0.0682053 -0.0310135 -0.0106503)
(-0.0170943 -0.000329318 0.0155667)
(0.0778075 0.0168534 -0.0228316)
(-0.637055 -0.0146989 -0.104222)
(0.594903 -0.0152946 0.133506)
(-0.495491 -0.0110337 -0.333718)
(0.0145713 -0.0225369 0.632068)
(0.117435 0.172388 -0.510304)
(0.281564 0.0897414 -0.183646)
(-0.0370049 0.111038 -0.311744)
(0.0876069 0.617458 -0.0471759)
(-0.340094 0.00376333 -0.121897)
(0.0822522 -0.101299 0.151226)
(-0.0669476 0.0513745 -0.0539012)
(0.135557 -0.0349366 0.0270363)
(-0.0740014 0.0031152 -0.0107679)
(-0.606437 -0.00979274 -0.116067)
(0.553925 -0.0366876 0.130223)
(-0.47386 0.080385 -0.395406)
(0.0467701 -0.129922 0.545667)
(0.204564 -0.0787306 -0.486583)
(0.14555 0.0291414 -0.177184)
(-0.0761858 0.0397733 -0.32943)
(0.127721 0.0980389 -0.202647)
(-0.0510745 0.752557 -0.176546)
(-0.300417 -0.0813583 0.0211467)
(0.110504 -0.0547252 0.0676535)
(-0.0651364 0.00380413 -0.00435834)
(0.141933 0.0087758 -0.0187432)
(-0.660666 -0.0489728 -0.0674495)
(0.684746 0.0178347 0.0713501)
(-0.667096 -0.0249932 -0.108888)
(0.711627 0.0369 0.106819)
(-0.665255 -0.36791 -0.388947)
(0.980495 0.0766509 -0.0702088)
(-0.135506 -0.030348 -0.359223)
(0.0798603 0.0210201 -0.224652)
(0.00606006 0.070962 -0.290231)
(0.0655848 0.702047 -0.10838)
(-0.359449 -0.0407053 -0.0299774)
(0.18313 0.0178934 0.118866)
(-0.118459 0.0231632 0.0113477)
(-0.581239 -0.0669396 -0.0565897)
(0.567409 0.0300752 0.066108)
(-0.471037 -0.122423 -0.136234)
(0.507832 0.137546 0.184849)
(-0.32262 -0.284396 -0.327372)
(-0.108538 0.24045 0.344056)
(0.398597 -0.164933 -0.358462)
(0.106035 -0.024657 -0.233166)
(-0.0336096 0.0200598 -0.292241)
(0.0868126 0.060022 -0.243831)
(0.0317991 0.682543 -0.193074)
(0.044053 0.436682 -0.188072)
(0.0127477 0.506788 -0.239263)
(-0.616416 -0.0556788 -0.0413137)
(0.628404 0.00350559 0.0438431)
(-0.557838 -0.0652992 -0.0750245)
(0.572943 0.0295579 0.0735406)
(-0.451396 -0.11327 -0.0946413)
(0.408429 0.0360953 0.0161996)
(-0.42103 -0.215725 -0.172442)
(0.846797 0.0255328 -0.146635)
(-0.0789113 0.0105967 -0.266608)
(0.0311308 0.0826721 -0.247418)
(0.0902235 0.351752 -0.252585)
(0.0229593 0.5372 -0.225929)
(0.456665 0.0941713 0.0590062)
(-0.305295 -0.204181 -0.106479)
(0.327335 0.200582 0.11445)
(-0.173716 -0.298175 -0.225762)
(-0.0282055 0.273593 0.213646)
(0.343162 0.0146374 -0.200835)
(0.113985 0.088294 -0.146583)
(-0.0491468 0.274113 -0.341529)
(-0.136228 0.606246 -0.389862)
(-0.0609349 0.0171242 -0.0677862)
(0.416172 0.073345 -0.137351)
(0.00101776 0.00732305 -0.186283)
(-0.0686364 0.534197 -0.378967)
(0.0054446 0.212177 -0.482935)
(-0.470113 0.0774445 -0.0570764)
(0.451069 -0.0995897 0.0661276)
(-0.345283 0.0871791 -0.0739925)
(0.29246 -0.0890132 0.0611892)
(-0.201817 0.068397 -0.0507717)
(0.183606 -0.0568738 0.0295511)
(-0.0965365 0.0333498 -0.00845762)
(0.108363 -0.0316185 0.00399583)
(-0.0343009 0.0194192 0.00217105)
(0.0533514 -0.0202922 -0.000428114)
(0.0188946 0.0183047 -0.00109055)
(-0.590526 0.0314382 -0.030722)
(0.576961 -0.0548368 0.0331588)
(-0.499254 0.0629799 -0.053076)
(0.43929 -0.0923246 0.0670889)
(-0.315509 0.118769 -0.116728)
(0.283607 -0.125715 0.11018)
(-0.174563 0.0891896 -0.0860519)
(0.161446 -0.0929516 0.0789375)
(-0.0934145 0.0556805 -0.0583156)
(0.109914 -0.0483069 0.0446349)
(-0.0380453 0.027997 -0.0306712)
(0.0616546 -0.0232638 0.0212725)
(0.00902643 0.0148288 -0.0142501)
(-0.595953 0.0414969 -0.0543799)
(0.584293 -0.0720298 0.0679365)
(-0.504262 0.104335 -0.113561)
(0.50629 -0.152547 0.164867)
(-0.375599 0.109632 -0.177821)
(0.262398 -0.119719 0.143535)
(-0.169149 0.0817792 -0.13408)
(0.146981 -0.0677086 0.062977)
(-0.0520449 0.0236922 -0.00150855)