/*--------------------------------*- C++ -*----------------------------------*\
  =========                 |
  \\      /  F ield         | OpenFOAM: The Open Source CFD Toolbox
   \\    /   O peration     | Website:  https://openfoam.org
    \\  /    A nd           | Version:  10
     \\/     M anipulation  |
\*---------------------------------------------------------------------------*/
FoamFile
{
    format      ascii;
    class       volVectorField;
    location    "0.05";
    object      U_0;
}
// * * * * * * * * * * * * * * * * * * * * * * * * * * * * * * * * * * * * * //

dimensions      [0 1 -1 0 0 0 0];

internalField   nonuniform List<vector> 
114955
(
(-0.115092 -0.00333782 -0.00136888)
(0.121081 -0.0153817 -0.0084821)
(-0.0467516 0.00507855 -0.00372878)
(0.0740321 -0.0159175 -0.00421898)
(-0.0176611 0.0166315 -0.0340535)
(0.0480807 -0.0126439 0.00940258)
(0.0175985 0.00279796 -0.0195717)
(-0.127391 -0.0202703 0.0196133)
(0.132421 -0.00469563 -0.0187782)
(-0.050007 -0.0130671 0.00374871)
(0.0753118 -0.00080951 -0.0108382)
(-0.00164783 -0.00495971 -0.0219345)
(0.0217876 0.0011734 0.00150163)
(0.0303833 -0.00141168 -0.00149379)
(-0.120123 -0.0289092 -0.00645045)
(0.128242 -0.00203171 -0.00396015)
(-0.0427174 -0.0107527 0.00143284)
(0.0820528 -0.0133479 -0.0115317)
(-0.0156293 0.027852 -0.00847783)
(0.0516045 -0.00894974 -0.00914381)
(0.0157633 0.0168437 -0.00947808)
(-0.135224 -0.0350773 0.0100166)
(0.150504 0.00330999 -0.00370068)
(-0.0609726 -0.0242259 0.00293328)
(0.113396 0.0132392 -0.00685588)
(0.00288618 0.00674577 -0.0220082)
(0.0109151 -0.00523434 -0.00708589)
(0.0322401 0.00297321 -0.00572367)
(0.442801 -0.00944674 -0.0213617)
(-0.289622 -0.0130261 0.0303057)
(0.263481 -0.00411189 -0.0327576)
(0.410399 -0.0258761 -0.0313761)
(-0.263369 0.0202914 0.0509928)
(0.296077 -0.0159532 -0.0547281)
(-0.185053 -0.012401 0.0287286)
(0.118092 -0.0132331 -0.0318006)
(-0.0482584 -0.00872204 0.0167779)
(0.0317499 0.0170083 -0.00676292)
(0.00763136 -0.0286393 0.00974688)
(0.0578248 0.00754462 -0.0349167)
(0.0278623 -0.00644718 0.0277126)
(0.475259 0.016184 0.0531845)
(-0.275571 -0.0413352 0.012241)
(0.231894 0.00530038 -0.0134853)
(-0.12692 -0.0204801 0.0180196)
(0.0982561 -0.00588857 -0.0253229)
(-0.0390382 -0.000545137 0.0198036)
(0.0363837 -0.0190769 -0.0115419)
(0.0100201 0.0281524 0.013066)
(0.0673595 -0.02921 -0.00491608)
(0.0011765 0.0143187 -0.0439782)
(0.417665 0.0267135 0.0372761)
(-0.274082 -0.0843122 0.00935105)
(0.316725 0.00871112 -0.0296676)
(-0.195606 -0.0317348 0.0181123)
(0.138107 0.00746048 -0.025327)
(-0.0612036 -0.0119414 -0.00261963)
(0.06048 -0.00345825 0.00153527)
(-0.00178662 -0.00500778 -0.011601)
(0.0446699 -0.0156944 -0.0049391)
(0.0312757 -0.00659969 0.00898798)
(-0.127222 -0.0704069 -0.00532889)
(0.11821 0.0266154 -0.0102695)
(-0.0496032 -0.0118729 0.0144386)
(0.0444134 -0.00940675 -0.0754676)
(-0.00540298 -0.000817313 0.175227)
(0.0754881 -0.031862 -0.018565)
(0.0445718 -0.00869476 0.0222541)
(-0.165706 -0.0799582 -0.00555796)
(0.195411 0.0209188 0.00188046)
(-0.0965171 -0.00839921 -0.0665206)
(0.0693498 -0.0149676 0.120742)
(0.0112765 -0.00683292 0.047111)
(0.0576886 -0.01672 -0.0277363)
(0.0517537 -0.0027559 0.00435165)
(0.189204 -0.0351606 0.0513165)
(-0.0849507 -0.00446161 -0.0774217)
(0.0634515 -0.00472771 0.116945)
(0.0146127 0.00402426 0.0410659)
(0.0602446 -0.00448906 -0.028939)
(0.0538233 -0.00868054 0.00519496)
(0.212033 -0.0372434 0.029518)
(-0.0659166 -0.0136103 -0.00790732)
(0.06163 -0.0152415 -0.0499353)
(-0.00706936 0.00120971 0.136768)
(0.0739462 0.0078989 0.00844376)
(-0.311559 0.117372 0.0772779)
(0.166788 -0.108923 -0.0809402)
(-0.0990792 0.0679557 0.0700537)
(0.129425 -0.060424 -0.0496775)
(-0.0604497 0.00986757 -0.00695076)
(0.0721173 -0.0204666 -0.0195439)
(-0.015395 0.0142021 -0.0045887)
(0.0515414 -0.0239039 -0.000442063)
(0.0114474 0.0190743 0.00106265)
(-0.249482 0.0373141 0.0594869)
(0.18407 -0.0601128 -0.0557002)
(-0.09524 0.0522416 0.0550776)
(0.0742395 -0.061982 -0.0320254)
(-0.0298287 0.049136 0.0359291)
(0.0986296 -0.0335327 -0.041158)
(-0.033919 -0.00270073 0.000715884)
(0.0564412 0.000979364 -0.00826971)
(0.0186529 -0.0153824 -0.000418664)
(0.44793 -0.0248644 -0.121776)
(-0.246606 0.00984597 0.140261)
(0.183524 -0.0351025 -0.182132)
(-0.105528 0.0115469 0.242749)
(0.135175 -0.0546613 -0.103492)
(-0.00485145 0.0317927 0.0896249)
(0.0114738 -0.024193 -0.180476)
(0.0209483 0.0155363 0.041917)
(0.0390039 -0.0382227 -0.0122925)
(0.0233796 0.0258173 0.0196211)
(0.435279 0.0768778 -0.0643919)
(-0.260567 -0.0379796 -0.00263582)
(0.177429 0.00972098 0.015747)
(-0.0751207 -0.00904546 0.196097)
(0.109436 -0.0302889 -0.144577)
(-0.0174952 0.0107909 0.0800216)
(0.0967905 -0.0459675 -0.0371835)
(-0.0553717 0.0638208 -0.13464)
(0.0659437 -0.0440233 0.0476866)
(0.0324666 -0.0111581 -0.0285718)
(0.48232 0.0786017 -0.193936)
(-0.318751 -0.0784093 0.311421)
(0.244909 0.0271911 -0.162877)
(-0.128725 -0.0308863 0.161798)
(0.136683 0.000945209 -0.118855)
(-0.0276537 -0.0352762 0.066347)
(0.0919275 0.00120541 -0.0312792)
(-0.00161072 -0.0268232 -0.0909061)
(-0.0380889 0.0319071 0.0471644)
(0.0709456 -0.0197498 -0.000431202)
(0.469497 0.0367401 0.0230293)
(-0.309434 -0.112515 -0.0564974)
(0.226937 0.0634814 0.0497607)
(-0.0966612 -0.0351009 0.198397)
(0.110888 0.0148098 -0.145072)
(-0.0124938 -0.0178127 0.0815621)
(0.0625648 -0.0790911 -0.0681832)
(-0.0206463 0.170124 0.0267103)
(0.0831256 -0.0525376 -0.0256184)
(0.0456342 0.0547157 0.00628615)
(0.442905 0.0588626 -0.0510379)
(-0.290156 -0.11806 0.0987101)
(0.288641 0.0673016 -0.161908)
(-0.190069 -0.0583535 0.204687)
(0.183959 0.056467 -0.088148)
(-0.115149 -0.0916367 0.0681169)
(0.243609 0.117865 -0.0308356)
(-0.447725 -0.0683079 -0.0677202)
(0.370916 0.445143 0.415746)
(0.0740963 0.41494 0.394217)
(0.449871 0.011692 0.0561106)
(-0.3029 -0.0831711 -0.0554662)
(0.29372 0.0239641 0.0463527)
(-0.149323 -0.0896136 -0.0428752)
(0.0737305 0.076568 0.0710382)
(0.0799787 -0.122721 0.103016)
(-0.319194 0.221702 -0.10272)
(0.315744 0.413519 0.444242)
(0.0807615 0.0659496 0.468935)
(0.047426 0.180704 0.51543)
(-0.27778 -0.0868884 -0.0087937)
(0.280661 0.028344 -0.0186128)
(-0.135995 -0.0776311 -0.0125744)
(0.12017 0.0158749 0.05471)
(0.0252153 0.0663486 0.132722)
(-0.298509 -0.209504 -0.093958)
(0.526131 0.0376354 0.470399)
(-0.00759194 0.0874152 0.479254)
(0.0213241 0.0794777 0.521669)
(0.301428 -0.0117806 0.0313993)
(-0.162762 -0.0463547 -0.00330705)
(0.206456 -0.0177271 -0.0288714)
(-0.141379 0.036317 0.143741)
(0.25879 -0.113866 -0.0235435)
(-0.373648 -0.0177509 -0.0382258)
(0.561649 0.0480762 0.481278)
(-0.583851 0.0952501 -0.00282115)
(0.442599 -0.129545 -0.0190922)
(-0.238567 0.0904011 0.366975)
(0.261927 -0.102393 -0.227977)
(-0.118149 0.0862856 -0.0371188)
(0.0404658 -0.0598862 0.0466737)
(-0.0375998 0.0528544 -0.037755)
(0.0784037 -0.0555113 0.0244619)
(0.00849994 0.000392724 -0.0465632)
(0.0520053 -0.0101512 0.0309197)
(0.00728978 -0.00089522 -0.0192577)
(-0.535652 0.0569299 0.32144)
(0.405868 -0.100758 -0.429011)
(-0.251548 0.104804 0.388965)
(0.231404 -0.17476 -0.27634)
(-0.125961 0.218752 0.187328)
(0.152454 -0.130832 -0.094591)
(-0.0548031 0.121854 -0.0865125)
(0.0188234 -0.215316 0.0313892)
(0.0264024 0.0638869 0.0249378)
(0.0435035 -0.0298649 -0.0366143)
(0.0359021 0.0333564 0.0304293)
(-0.588467 -0.0312183 0.256985)
(0.487228 -0.00268153 -0.499679)
(-0.351129 -0.0761868 0.355172)
(0.330748 0.0563665 -0.221841)
(-0.471653 0.0240748 0.0861535)
(0.409516 0.36333 0.381013)
(-0.0468277 0.51221 0.529105)
(-0.404246 0.0378052 0.0153045)
(0.138029 -0.160103 -0.162648)
(0.0209175 0.0588427 0.107947)
(-0.0208204 -0.0394023 -0.0592624)
(-0.52517 -0.00883168 0.309442)
(0.358486 -0.0585367 -0.426906)
(-0.201619 0.194105 0.399334)
(-0.133834 -0.102162 -0.306551)
(0.132535 0.396741 0.548045)
(0.104904 -0.00306669 0.409589)
(-0.0391442 0.0961582 0.626603)
(-0.0282899 0.683394 0.444449)
(-0.40561 -0.183605 0.0761049)
(0.140455 0.0667328 -0.19248)
(0.0288905 -0.0217147 0.10953)
(0.685755 0.102389 -0.0234029)
(-0.723867 -0.0731545 0.305641)
(0.849756 0.368747 0.173168)
(-0.258189 0.0431541 0.653264)
(0.00878433 0.0635668 0.421954)
(-0.0526078 0.0807848 0.620188)
(0.0392356 0.158376 0.561017)
(-0.329473 0.200016 0.00875206)
(0.183638 -0.127614 -0.0497947)
(-0.128617 0.0692706 -0.199725)
(0.421082 0.176632 -0.122944)
(-0.265696 -0.294243 0.267434)
(-0.0833713 0.168219 -0.278577)
(0.33268 -0.0536865 0.607121)
(0.00676773 0.0352152 0.396769)
(-0.0815585 0.0200438 0.641556)
(0.0161582 -0.0703532 0.490776)
(-0.0162403 0.691017 0.431945)
(0.104382 0.374511 0.427574)
(0.0421095 0.434405 0.421679)
(0.560303 0.0337889 -0.0034937)
(-0.408902 -0.046087 0.0321959)
(0.372062 -0.00579232 0.0267804)
(-0.397622 -0.166113 0.13243)
(0.661868 0.0920019 0.389866)
(-0.14715 0.0426501 0.588617)
(0.0393797 0.101648 0.556654)
(0.0205878 0.27559 0.453132)
(0.0990163 0.284076 0.263343)
(0.08524 0.310904 0.349761)
(0.440091 0.0958238 0.00942152)
(-0.284986 -0.199013 0.0437803)
(0.307594 0.180345 -0.0685249)
(-0.147888 -0.289053 0.198188)
(-0.10809 0.258443 -0.178992)
(0.216699 0.0218356 0.669)
(0.0209655 0.0810092 0.374392)
(0.0846682 0.103043 0.330423)
(0.127288 0.0996836 0.566727)
(0.0576013 0.139673 0.618696)
(-0.325908 -0.033374 -0.00524441)
(0.28877 -0.0457764 0.00735142)
(-0.0737229 0.0136032 0.0294346)
(-0.220368 -0.138354 0.028223)
(0.371137 -0.067046 0.623212)
(-0.0540945 -0.0106245 0.374795)
(0.170414 0.0802336 0.561808)
(0.0485065 0.0784308 0.707242)
(0.0531591 0.0654749 0.641113)
(0.358075 0.0151515 0.0279729)
(-0.23009 -0.0189698 -0.0190696)
(0.353627 -0.123377 0.0453422)
(-0.304895 0.111867 0.0194761)
(0.302868 0.0655779 0.576359)
(-0.00162144 0.094349 0.484237)
(0.222035 0.0892916 0.579173)
(0.492134 -0.198045 -0.0545623)
(-0.340292 0.165318 0.0611179)
(0.178707 -0.138392 -0.0474752)
(-0.111869 0.109276 0.0239942)
(0.138432 -0.0847458 -0.011068)
(-0.0779678 0.0311717 -0.0230182)
(0.0970217 -0.0342187 0.0186463)
(-0.0337031 0.0263299 -0.0149281)
(0.0641991 -0.0279595 0.0106876)
(0.00441902 0.0231088 -0.008408)
(0.415208 -0.112778 -0.0684006)
(-0.226016 0.462664 0.06349)
(0.242771 -0.323399 -0.0673987)
(-0.13694 0.0134175 0.0531567)
(0.0882823 -0.00211733 -0.017466)
(-0.0482171 0.0063264 0.0189951)
(0.104546 -0.00838002 -0.0289974)
(-0.0344213 -0.0294348 0.021486)
(0.0523253 0.0168744 -0.0156755)
(0.0191621 -0.0137672 0.0125268)
(-0.49512 0.372498 0.267207)
(-0.0360454 -0.583927 -0.501191)
(-0.258481 0.731519 0.635037)
(0.323164 0.166202 0.241367)
(-0.426696 0.250912 0.173166)
(0.185082 -0.16707 -0.0939205)
(-0.108278 -0.0601368 -0.139865)
(0.0603399 0.0184025 0.118279)
(-0.0100027 0.0331781 -0.0439376)
(0.0796813 -0.0521717 0.031313)
(-0.00432713 0.042134 -0.0127805)
(-0.902721 0.343414 0.339222)
(0.774582 0.284857 0.140297)
(-0.200341 0.422432 0.829509)
(0.208709 0.149559 0.216777)
(-0.117294 0.755528 0.571317)
(0.165617 0.313444 0.425485)
(-0.429349 0.171829 0.0875948)
(0.197861 -0.114739 -0.190305)
(-0.111086 -0.125209 0.113301)
(0.0603332 0.0844024 -0.057072)
(0.0370495 -0.0564761 0.0372708)
(-0.936574 -0.0177909 0.309491)
(0.846443 0.156623 0.190323)
(-0.176195 0.0958027 0.734677)
(0.156175 0.112792 0.387662)
(-0.00879972 0.301286 0.540607)
(0.160173 0.0891453 0.214156)
(-0.0627649 0.766478 0.227262)
(0.0497068 0.395016 0.698177)
(-0.355449 0.0860505 -0.171419)
(0.129093 -0.194525 0.05992)
(-0.0369058 0.110066 -0.0113558)
(-0.888752 -0.334555 0.324031)
(0.941513 -0.00192707 0.103655)
(-0.255719 -0.0433102 0.898124)
(0.0751928 -0.0086788 0.210449)
(0.0482101 0.0585829 0.373009)
(0.15402 0.0820636 0.623823)
(0.031297 0.263758 0.534609)
(0.0795628 0.158688 0.193532)
(-0.0862936 0.686182 0.655082)
(-0.308241 -0.057563 -0.200372)
(0.125146 -0.140208 0.0375716)
(-0.508589 -0.352998 0.223736)
(0.0435609 0.473989 -0.37285)
(0.0306851 -0.309876 0.458382)
(0.0766912 -0.133286 0.0918982)
(-0.0177875 -0.0121033 0.791822)
(-0.000398259 0.0445935 0.666422)
(-0.00679813 0.0748734 0.611869)
(0.0136666 0.11812 0.417533)
(0.013214 0.147733 0.778275)
(0.0200049 0.696972 0.422125)
(-0.244304 -0.0443496 -0.0227457)
(0.677844 0.0645682 -0.0379854)
(-0.584402 -0.38818 0.372321)
(0.811063 0.144119 0.222561)
(-0.00227236 -0.0327442 0.602405)
(-0.0334704 0.0227249 0.714899)
(-0.0429619 0.0382332 0.660572)
(-0.0011537 0.0389536 0.565238)
(0.0381029 0.226598 0.350272)
(0.0940239 0.186317 0.271886)
(0.035837 0.793865 0.255714)
(0.49191 0.19582 -0.0841342)
(-0.268654 -0.349644 0.151328)
(-0.0327494 0.282645 -0.173046)
(0.283513 -0.146794 0.555522)
(0.0703673 0.0148491 0.453941)
(-0.0935325 0.0451376 0.70371)
(-0.0189447 0.0911046 0.578208)
(0.068761 0.286491 0.527819)
(0.0167654 0.374491 0.364665)
(0.109117 0.53433 0.222722)
(0.524633 0.0467349 0.00853121)
(-0.381838 -0.12431 0.00710241)
(0.443296 0.00485977 0.00698687)
(-0.393668 -0.225099 0.175374)
(0.63298 0.0860304 0.389523)
(-0.180421 0.0182155 0.506346)
(-0.234404 0.157291 0.543844)
(-0.204783 0.424513 0.623174)
(-0.170493 0.30981 0.618403)
(-0.0530859 0.399809 0.458074)
(-0.299492 -0.16732 0.0381548)
(0.319569 0.125605 -0.0807444)
(-0.120941 -0.300125 0.192031)
(0.0261322 0.246804 -0.261907)
(0.177073 -0.0381151 0.418422)
(-0.185564 -0.152294 0.523696)
(-0.315772 0.0185312 0.609753)
(0.0443192 0.0969192 0.654362)
(0.0424233 0.065053 0.479692)
(0.31788 0.0188722 0.0177194)
(-0.143568 -0.121044 -0.0146617)
(0.0334367 0.0224587 0.0284886)
(0.0497285 0.0376179 0.616683)
(0.0622879 -0.0401619 0.375874)
(0.0276263 -0.0350682 0.699101)
(-0.152444 -0.0023414 0.564708)
(-0.550568 0.153192 0.0348503)
(0.458599 -0.178202 -0.0651358)
(-0.287482 0.170594 0.00465503)
(0.218234 -0.141763 -0.0155263)
(-0.1197 0.129486 0.0362523)
(0.0853167 -0.0772201 -0.0188254)
(-0.0467542 0.0695088 -0.0191384)
(0.104138 -0.0686268 0.01375)
(-0.0352914 0.0448993 -0.00927195)
(0.0614424 -0.0344618 0.00476669)
(0.0107402 0.0265037 -0.000924869)
(-0.538891 0.396999 -0.0318556)
(0.418873 -0.568538 0.0242257)
(-0.281963 0.49059 -0.0115334)
(0.219784 -0.373338 -0.00324813)
(-0.114222 0.267209 0.008281)
(0.144059 -0.128437 -0.0103443)
(-0.107309 -0.0802193 0.0465776)
(0.0834169 0.0467058 -0.0427985)
(-0.00280281 -0.00851279 0.0279196)
(0.0350927 -0.000603144 -0.0135882)
(0.024616 0.0163447 0.00523491)
(-0.924329 0.394774 0.338087)
(0.885498 0.0603965 0.335744)
(-0.260121 0.874915 0.359068)
(0.254703 0.159507 0.134919)
(-0.118264 0.597227 0.684423)
(0.209002 0.301405 0.333677)
(-0.473458 0.158344 -0.124305)
(0.152466 -0.197089 0.0753085)
(-0.0833017 0.101036 -0.0144509)
(0.0869338 -0.0542305 0.00481628)
(-0.0106528 0.0250759 0.0137104)
(-1.01155 0.0527037 -0.0851706)
(0.789972 0.0266981 0.0179571)
(-0.142383 0.550706 0.483571)
(-0.0313244 0.585297 0.531836)
(0.0584337 0.43614 0.356208)
(0.163577 0.089977 0.0675237)
(-0.11566 0.693195 0.677713)
(-0.348743 -0.0900892 -0.254551)
(0.128993 -0.0513372 0.112074)
(-0.0403708 0.00296935 -0.0367933)
(0.0715242 0.0343179 0.00194432)
(-0.977873 -0.0445795 0.0488655)
(0.764609 0.222872 0.12707)
(0.235475 0.154739 0.776644)
(0.00400069 0.107825 0.714576)
(-0.104048 0.642116 0.756013)
(-0.251159 0.416899 0.247287)
(0.0239326 0.294225 0.170218)
(0.119537 0.73567 0.0817979)
(-0.303313 -0.0184448 0.00925837)
(0.161516 -0.0692803 -0.0418382)
(-0.113336 -0.0391467 0.0738442)
(-0.948205 -0.0662118 -0.108074)
(0.841012 0.0578809 0.109425)
(-0.139971 -0.240945 0.635751)
(-0.103807 -0.0313726 0.706372)
(-0.159291 0.209563 0.751109)
(0.00116911 0.289598 0.348438)
(-0.0247125 0.730765 0.16608)
(-0.127636 0.443832 0.00489961)
(0.000444817 0.745942 0.194552)
(-0.342312 -0.0535398 0.0266271)
(0.276596 0.00578421 -0.105694)
(-0.888607 -0.461315 0.309586)
(1.03852 0.0235705 0.200486)
(-0.1646 -0.156523 0.310488)
(-0.205077 -0.314871 0.559685)
(-0.222118 0.0975323 0.531572)
(-0.0815146 0.247347 0.673162)
(-0.104579 0.206499 0.588827)
(-0.163988 0.37014 0.283114)
(0.226567 0.0765684 0.265962)
(0.0621792 0.726405 0.145517)
(-0.547999 -0.00837537 0.18045)
(0.0430447 0.433053 0.138821)
(0.0288613 -0.409583 0.523539)
(-0.0250297 -0.0392021 -0.00650051)
(-0.1124 -0.368867 0.680942)
(-0.0721013 -0.157746 0.792152)
(-0.0523366 0.0343064 0.590945)
(-0.059957 0.209339 0.446246)
(-0.0850954 0.719685 0.504047)
(0.194096 0.379789 0.0452924)
(-0.0130548 0.67537 0.149955)
(0.656337 0.0788256 -0.154386)
(-0.620286 -0.483281 0.242726)
(0.861578 0.125561 0.309739)
(-0.130801 -0.26498 0.346338)
(-0.058944 -0.375382 0.596387)
(-0.0347222 -0.227998 0.672363)
(-0.0449103 0.0856246 0.534637)
(0.00364954 0.463335 0.463734)
(-0.0501372 0.232625 0.173176)
(0.0944606 0.619219 0.38708)
(0.47113 0.175305 0.0817158)
(-0.294047 -0.314888 -0.116916)
(-0.0575616 0.226533 0.140471)
(0.269472 -0.258634 0.550523)
(-0.0385379 -0.198628 0.0117791)
(-0.0770384 -0.27194 0.595065)
(-0.0163214 -0.0598083 0.634386)
(0.0397564 0.181722 0.299182)
(0.0643881 0.349763 0.230672)
(0.120764 0.296863 0.135339)
(-0.443328 -0.236893 0.180057)
(0.692046 -0.0125377 0.359345)
(-0.254892 -0.20665 0.10114)
(0.217386 -0.114287 0.353723)
(0.0726604 -0.0150893 0.26382)
(1.21861 -0.190526 -0.49856)
(0.14649 0.085519 -0.0761524)
(0.0626578 0.0446539 0.248585)
(-0.157611 -0.00811793 0.147098)
(-0.0966058 -0.027043 0.123295)
(0.580524 0.0472082 -0.292741)
(-0.551642 0.148205 -0.0936507)
(0.461553 -0.178121 0.112858)
(-0.290378 0.181547 -0.0416448)
(0.210423 -0.149981 0.0307775)
(-0.114765 0.140683 -0.0126483)
(0.0811244 -0.0882231 -0.021364)
(-0.0452956 0.0778137 0.032911)
(0.107349 -0.0763355 -0.0231533)
(-0.0430375 0.0528697 0.0115225)
(0.0728902 -0.0413589 -0.00622518)
(-0.000597292 0.0288486 -0.00279882)
(0.651733 -0.157986 0.0247354)
(-0.541355 0.395706 -0.0313251)
(0.439559 -0.580153 0.0278709)
(-0.295831 0.503253 -0.0265655)
(0.229911 -0.394621 0.0160181)
(-0.128427 0.291467 -0.0237957)
(0.145469 -0.166724 0.0191375)
(-0.106672 -0.0879965 -0.0469801)
(0.0853284 0.0617675 0.0391089)
(-0.00330559 -0.0349852 -0.0316779)
(0.0287311 0.0167349 0.0150147)
(0.0341712 0.00141053 -0.00757738)
(0.891576 -0.16175 0.116154)
(-0.921443 0.377721 -0.397692)
(1.07177 0.0290702 0.156078)
(-0.370842 0.877909 0.0233657)
(0.230318 0.150626 0.0355776)
(-0.00730509 0.691594 0.139549)
(0.268586 0.326538 -0.0783515)
(-0.434554 0.168749 0.22723)
(0.134147 -0.212021 -0.135561)
(-0.0889355 0.12059 0.0570928)
(0.109421 -0.0770939 -0.0310871)
(-0.0350711 0.0385847 -0.00412528)
(0.86784 -0.075337 0.0515702)
(-1.00438 0.042999 0.0123842)
(0.937402 0.129426 0.26192)
(0.0835454 0.924576 0.011472)
(0.0106274 0.760969 -0.0093168)
(-0.165415 0.872642 0.481349)
(0.230268 0.151945 0.00861917)
(0.0527565 0.777864 0.00876229)
(-0.329694 -0.104435 0.234153)
(0.119466 -0.0943071 -0.122212)
(-0.0525942 0.0367491 0.0483128)
(0.0986044 0.00579062 -0.00937304)
(0.903923 -0.00349226 0.0753836)
(-0.988888 -0.0420266 -0.112213)
(0.827982 0.123597 0.139111)
(0.238525 0.144462 0.061093)
(0.361269 0.249709 0.0754862)
(-0.0101238 0.600404 0.29467)
(-0.0695713 0.802739 -0.0303842)
(0.193285 0.313615 0.00142582)
(0.230909 0.702046 -0.0643436)
(-0.321865 -0.00479235 0.176722)
(0.192624 -0.121282 -0.0745386)
(-0.159477 -0.00241915 -0.0176605)
(-0.944178 -0.0588082 0.0380499)
(0.941226 0.132332 0.222348)
(0.385942 -0.321616 0.0191963)
(0.141519 -0.325643 -0.0485797)
(1.38382 0.243621 0.253753)
(0.240063 0.350936 -0.0823499)
(-0.0207598 0.771157 -0.00279163)
(-0.0698086 0.54342 0.115595)
(0.0372527 0.785369 -0.0755132)
(-0.364295 -0.0787477 0.151704)
(0.334936 -0.00663742 0.0284322)
(-0.886206 -0.445889 -0.363989)
(1.20901 -0.108996 0.117505)
(-0.237583 -0.336505 0.154878)
(0.144532 -0.402925 -0.0423461)
(0.252587 -0.182887 0.0208002)
(1.16176 0.0576793 -0.0193826)
(0.686824 0.283217 -0.0835153)
(0.100061 0.388996 -0.0495769)
(0.224866 0.19181 0.0504894)
(0.119243 0.73847 -0.0485474)
(-0.594893 -0.026013 0.00474889)
(0.0619915 0.450199 -0.0938263)
(0.285181 -0.490489 0.0325495)
(-0.0706558 -0.225831 0.0372503)
(-0.00171436 -0.398346 -0.0742965)
(0.28866 -0.194146 -0.0814459)
(0.707879 0.0856586 -0.0606536)
(0.11409 0.665643 -0.0349431)
(-0.16632 0.510523 0.16937)
(-0.106254 0.710803 0.0436778)
(0.66249 0.0899501 0.194352)
(-0.624572 -0.502677 -0.280403)
(1.0265 -0.0239547 0.0396848)
(-0.245762 -0.30844 -0.106758)
(0.155418 -0.473949 -0.175373)
(0.142629 -0.233631 -0.0491366)
(1.42165 0.288621 0.0522772)
(0.970916 0.263936 -0.106658)
(0.152675 0.233327 0.0343203)
(0.471448 0.181754 -0.0341257)
(-0.294997 -0.327968 0.0737246)
(-0.0646282 0.254571 -0.117775)
(0.458581 -0.35684 0.00128449)
(-0.115249 -0.264605 0.0105555)
(0.114018 -0.288087 -0.0371764)
(0.217246 -0.251887 -0.0386922)
(1.25906 0.491321 -0.219191)
(-0.457395 -0.2739 -0.169225)
(0.842579 -0.132423 0.0686726)
(-0.284824 -0.188329 0.0639917)
(0.186316 -0.127105 -0.0312231)
(0.154141 -0.131819 -0.0345613)
(0.229292 0.123746 0.0078513)
(-0.0906193 0.130823 0.0842603)
(-0.347594 0.138189 0.082993)
(-0.498377 0.153545 -0.104286)
(0.511037 -0.202063 0.117717)
(-0.372059 0.167878 -0.110597)
(0.249262 -0.15382 0.0864686)
(-0.173967 0.125461 -0.0522109)
(0.131833 -0.085777 0.034577)
(-0.0476889 0.0400445 0.00528706)
(0.0816197 -0.0398096 -0.0032304)
(-0.0175305 0.0245386 0.00600072)
(0.0464606 -0.0252929 -0.00469339)
(0.0242167 0.0244531 0.00258187)
(-0.640927 0.060203 -0.0628536)
(0.642647 -0.0867317 0.070788)
(-0.577523 0.0863142 -0.127331)
(0.421667 -0.121553 0.136662)
(-0.254831 0.475899 -0.0605307)
(0.244254 -0.37231 0.0570433)
(-0.0987819 0.289707 -0.0420567)
(0.0743346 -0.287744 -0.0129957)
(-0.0657959 0.133945 -0.0105279)
(0.0997596 -0.0775317 0.0173822)
(-0.0289537 0.0395262 -0.0164491)
(0.0600888 -0.0261976 0.0140521)
(0.00666224 0.0150264 -0.0135555)
(-0.64656 0.107251 -0.101827)
(0.629877 -0.146602 0.13319)
(-0.508819 0.38674 -0.344703)
(-0.0192574 -0.578146 0.594789)
(-0.0366121 0.823508 -0.328213)
(0.366862 0.101856 -0.12057)
(-0.152691 0.71195 -0.0910619)
(-0.385682 -0.105063 0.0411344)
(0.11988 -0.0494055 0.10601)
(-0.00991831 -0.00701492 -0.0650227)
(0.0335852 0.00442108 0.0339105)
(0.0221868 -0.0182327 -0.0254676)
(0.0459246 0.0233607 0.0121691)
(-0.748308 0.0618558 -0.128222)
(0.947616 -0.121706 0.178869)
(-0.871775 0.346646 -0.494184)
(1.07008 0.140902 0.169172)
(-0.092537 0.681506 -0.301164)
(0.160568 0.591841 -0.313092)
(-0.109293 0.324616 -0.0453885)
(0.0824579 0.62929 -0.10581)
(-0.34503 0.0338073 0.019901)
(0.127494 -0.146258 0.114469)
(-0.0410984 0.0575886 -0.0638275)
(0.0792269 -0.0450399 0.0429034)
(-0.0114587 0.0200172 -0.0308762)
(-0.74441 -0.0140566 -0.124737)
(0.872116 -0.0189263 0.165643)
(-0.910868 -0.0176919 -0.472471)
(1.04307 0.0705021 0.136994)
(-0.375396 -0.0725335 -0.427662)
(-0.133473 0.25567 -0.469755)
(-0.214978 0.793346 -0.369314)
(0.180121 0.26189 -0.0549994)
(0.0567113 0.754867 -0.176287)
(-0.28143 -0.0487792 0.100875)
(0.107939 -0.0837571 0.0999683)
(-0.0155791 0.0125381 -0.0585409)
(0.0935572 0.00142418 0.0217253)
(-0.748664 -0.0757787 -0.123557)
(0.944529 0.0704517 0.168255)
(-0.868827 -0.330515 -0.464219)
(1.14785 0.0702939 -0.00795764)
(-0.271367 -0.006672 -0.342312)
(0.165722 -0.173711 -0.421644)
(-0.100956 0.0531554 -0.446341)
(-0.157544 0.753621 -0.316125)
(0.217311 0.550591 -0.279735)
(0.174753 0.764241 -0.119521)
(-0.279892 -0.0141949 0.0609201)
(0.136328 -0.104549 0.130969)
(-0.0611148 0.00867429 -0.025902)
(-0.658912 -0.12453 -0.0943271)
(0.654734 0.0909471 0.107938)
(-0.528731 -0.363853 -0.29972)
(0.0881061 0.474711 0.479268)
(0.261261 -0.315076 -0.279003)
(-0.0653689 -0.25211 -0.252964)
(-0.0229585 -0.0813043 -0.52007)
(-0.0864172 0.106353 -0.406279)
(-0.177694 0.203241 -0.305788)
(-0.0694138 0.444293 -0.246694)
(0.0532467 0.740004 -0.16108)
(-0.301368 -0.0508271 0.0650545)
(0.282615 -0.00429387 0.0487591)
(-0.657351 -0.0814542 -0.0515405)
(0.688677 0.0359187 0.0670783)
(-0.643922 -0.108566 -0.0629672)
(0.686561 0.0727203 0.110593)
(-0.584174 -0.408688 -0.38703)
(0.897308 0.0112358 0.0589621)
(-0.390336 -0.464728 -0.567138)
(-0.0901479 -0.154429 -0.561715)
(-0.159768 0.0141868 -0.583071)
(-0.104254 0.156857 -0.342969)
(-0.0830961 0.496973 -0.244585)
(-0.0368935 0.734651 -0.0366607)
(0.0472426 0.548381 -0.0662702)
(-0.613985 -0.0963877 -0.0486262)
(0.616349 0.0523731 0.0561869)
(-0.506233 -0.180352 -0.106876)
(0.504471 0.184193 0.143516)
(-0.290528 -0.342376 -0.208214)
(-0.0340471 0.284062 0.195328)
(0.377345 -0.202055 -0.262453)
(-0.0404998 -0.362708 -0.270776)
(0.118338 -0.156769 -0.460531)
(-0.0954868 0.0718911 -0.525114)
(-0.0503904 0.256017 -0.252798)
(-0.00426785 0.799431 -0.227865)
(0.53689 0.0404147 0.0486404)
(-0.409901 -0.110903 -0.0533312)
(0.463145 -0.0179182 0.0316919)
(-0.414621 -0.188771 -0.220111)
(0.730777 -0.147864 -0.00808119)
(-0.468867 -0.212844 -0.403913)
(-0.0356466 -0.0364924 -0.44825)
(-0.120328 0.235692 -0.264586)
(0.0116454 0.323978 -0.157086)
(0.100388 0.128591 0.234106)
(0.0555295 0.0418497 0.0470167)
(-0.164923 -0.0278742 -0.0585068)
(0.169739 0.0361771 -0.112757)
(-0.495491 0.0648622 -0.0655007)
(0.454982 -0.0887138 0.0660186)
(-0.322314 0.147211 -0.123918)
(0.272468 -0.14531 0.0945963)
(-0.167378 0.11351 -0.0832149)
(0.140507 -0.112589 0.0674163)
(-0.0850155 0.0803201 -0.0352315)
(0.108455 -0.0673029 0.0206948)
(-0.0445089 0.0438695 -0.0100401)
(0.0693839 -0.0334068 0.00488817)
(0.00210539 0.0213708 -0.00361009)
(-0.590558 0.0439256 -0.0562751)
(0.576646 -0.0777601 0.0621711)
(-0.499162 0.101812 -0.117135)
(0.52393 -0.167065 0.146382)
(-0.393824 0.180079 -0.125318)
(0.266955 -0.158615 0.103455)
(-0.175353 0.143634 -0.0914986)
(0.157487 -0.0797852 0.0521964)
(-0.0661322 0.0102529 -0.0249981)
(0.0789207 -0.00580319 0.0218061)
(-0.00691033 -0.00711563 -0.0159807)
(0.031716 -0.00515793 0.0135337)
(0.0341141 0.0114017 -0.0148386)
(-0.63724 0.0179217 -0.0638127)
(0.632947 -0.0519726 0.0674586)
(-0.579981 -0.0171058 -0.0915863)
(0.498431 -0.0460276 0.0941563)
(-0.274794 0.411485 -0.426659)
(0.233207 -0.374817 0.341594)
(-0.0433991 0.241376 -0.247848)
(-0.0188579 -0.277863 0.25162)
(-0.0151927 0.167022 -0.11027)
(0.0908132 -0.12141 0.0496753)
(-0.0442849 0.069814 -0.0220416)
(0.0877112 -0.0472443 0.0087095)
(-0.018228 0.0205206 -0.00472106)
(-0.611327 0.0027311 -0.119306)
(0.552214 -0.032273 0.134945)
(-0.471993 -0.0370566 -0.407084)
(-0.00702348 -0.00705182 0.547845)
(-0.00954097 0.728936 -0.471946)
(0.396904 0.128481 -0.0828409)
(-0.155411 0.652262 -0.188036)
(-0.332423 -0.0748055 0.0846062)
(0.0687255 -0.0478718 0.0495609)
(-0.0190878 0.0235214 0.00104763)
(0.0684604 -0.0324962 -0.00941293)
(-0.0173322 0.000921654 0.0146942)
(0.0779063 0.0158124 -0.0219632)
(-0.640072 -0.0148447 -0.104682)
(0.596908 -0.0151122 0.134407)
(-0.496566 -0.0112613 -0.33603)
(0.0125768 -0.0221649 0.629841)
(0.123418 0.172106 -0.508065)
(0.281143 0.0911586 -0.18603)
(-0.0350303 0.110304 -0.310563)
(0.0862375 0.62536 -0.0492788)
(-0.343019 0.0015761 -0.119639)
(0.0834313 -0.100556 0.150281)
(-0.0673063 0.0507106 -0.0530884)
(0.135959 -0.0341318 0.026278)
(-0.0741403 0.00212291 -0.00993932)
(-0.609348 -0.0100209 -0.116664)
(0.555785 -0.0364778 0.131411)
(-0.474239 0.080482 -0.397744)
(0.0443202 -0.13074 0.544342)
(0.212145 -0.0779214 -0.48535)
(0.142942 0.0290339 -0.179914)
(-0.0749366 0.0395838 -0.328615)
(0.126608 0.0985083 -0.204355)
(-0.0484489 0.758005 -0.176008)
(-0.303355 -0.0803349 0.0191693)
(0.111113 -0.0561737 0.0696172)
(-0.0657095 0.00502496 -0.00572591)
(0.142409 0.00803294 -0.0176289)
(-0.663416 -0.0492406 -0.0676216)
(0.687124 0.0179767 0.0715778)
(-0.667812 -0.0255225 -0.109474)
(0.71212 0.036023 0.105997)
(-0.668718 -0.365407 -0.384577)
(0.987233 0.075305 -0.0724422)
(-0.134709 -0.0304236 -0.35807)
(0.0787943 0.0210141 -0.226433)
(0.00733759 0.0703605 -0.289754)
(0.065335 0.709427 -0.110279)
(-0.362261 -0.042242 -0.0284937)
(0.184547 0.0189065 0.118296)
(-0.119155 0.0220045 0.0118902)
(-0.583953 -0.0672793 -0.0567839)
(0.569191 0.0303101 0.0662403)
(-0.471658 -0.123026 -0.136576)
(0.506348 0.137499 0.184581)
(-0.321972 -0.284614 -0.327395)
(-0.110721 0.237697 0.341508)
(0.406965 -0.164823 -0.35862)
(0.104194 -0.0249302 -0.235196)
(-0.0328053 0.020011 -0.291902)
(0.0861159 0.0599643 -0.245181)
(0.0336931 0.687813 -0.194641)
(0.0435687 0.440616 -0.190302)
(0.0138572 0.509852 -0.240467)
(-0.618974 -0.0558291 -0.0412601)
(0.630521 0.00340511 0.0437208)
(-0.558977 -0.0652693 -0.0748613)
(0.573627 0.0289706 0.07303)
(-0.451112 -0.111867 -0.0935499)
(0.408294 0.0351246 0.0145631)
(-0.424027 -0.213289 -0.168648)
(0.851795 0.0245737 -0.149134)
(-0.0790197 0.0108927 -0.26631)
(0.0299188 0.083257 -0.248636)
(0.0901865 0.354196 -0.253265)
(0.020054 0.542958 -0.229644)
(0.456624 0.0939329 0.0586424)
(-0.304875 -0.204149 -0.105988)
(0.325625 0.200243 0.113863)
(-0.172441 -0.29837 -0.225311)
(-0.0305147 0.273063 0.211503)
(0.348743 0.0144556 -0.200009)
(0.114014 0.0899039 -0.147512)
(-0.0506175 0.277167 -0.343531)
(-0.13342 0.611007 -0.391011)
(-0.0641073 0.0172324 -0.0696442)
(0.41997 0.0745959 -0.13685)
(5.94453e-05 0.00776305 -0.189233)
(-0.065892 0.538075 -0.380529)
(0.00489899 0.213759 -0.486529)
(-0.471676 0.0769725 -0.0570072)
(0.451488 -0.0987664 0.0656899)
(-0.34541 0.0863368 -0.0734273)
(0.292501 -0.0879955 0.060477)
(-0.201672 0.0673868 -0.0501142)
(0.183303 -0.0557903 0.0288774)
(-0.0960527 0.0322908 -0.00787582)
(0.107887 -0.0306699 0.00355817)
(-0.033904 0.0184494 0.00259294)
(0.0531603 -0.0193655 -0.000736889)
(0.0189034 0.017321 -0.000757278)
(-0.593562 0.031283 -0.0307995)
(0.579413 -0.0546602 0.0331744)
(-0.500692 0.0626585 -0.0530674)
(0.439965 -0.0915797 0.0667076)
(-0.315999 0.117451 -0.115795)
(0.283458 -0.124401 0.109209)
(-0.174187 0.087796 -0.0850656)
(0.160804 -0.0917957 0.0782111)
(-0.0928468 0.0545651 -0.057616)
(0.109363 -0.0472446 0.0440656)
(-0.0374636 0.0269785 -0.0300801)
(0.0612899 -0.0222498 0.020766)
(0.00923142 0.0138563 -0.0137045)
(-0.599011 0.0413783 -0.0545536)
(0.586484 -0.0719272 0.0680674)
(-0.505333 0.104388 -0.114061)
(0.505772 -0.151788 0.164237)
(-0.375302 0.108579 -0.176844)
(0.262413 -0.118541 0.142498)
(-0.169146 0.0807212 -0.133097)
(0.147101 -0.0664333 0.0615732)