/*--------------------------------*- C++ -*----------------------------------*\
  =========                 |
  \\      /  F ield         | OpenFOAM: The Open Source CFD Toolbox
   \\    /   O peration     | Website:  https://openfoam.org
    \\  /    A nd           | Version:  10
     \\/     M anipulation  |
\*---------------------------------------------------------------------------*/
FoamFile
{
    format      ascii;
    class       volVectorField;
    location    "0.05";
    object      wallShearStress;
}
// * * * * * * * * * * * * * * * * * * * * * * * * * * * * * * * * * * * * * //

dimensions      [0 2 -2 0 0 0 0];

internalField   uniform (0 0 0);

boundaryField
{
    inlet
    {
        type            calculated;
        value           nonuniform List<vector> 0();
    }
    outlet
    {
        type            calculated;
        value           nonuniform List<vector> 0();
    }
    walls
    {
        type            calculated;
        value           uniform (0 0 0);
    }
    drone
    {
        type            calculated;
        value           nonuniform List<vector> 
12529
(
(-0.00453748 0.000354577 0.000337323)
(-0.0163933 0.00809801 -0.00736195)
(-0.00190379 -0.00519572 -0.00359949)
(-0.001533 -0.00466909 -0.00324009)
(-0.0104483 -0.0155112 0.00167524)
(-0.0141442 -0.0127734 0.000372572)
(-0.0131609 -0.00342665 -0.00132042)
(-0.00404467 -0.00172283 -0.000199857)
(-0.0195971 0.00305059 0.00674262)
(-0.00108859 -0.000978109 0.00268561)
(-0.00125544 -0.00253629 -0.00447436)
(-0.0199871 -0.0016284 -0.00571008)
(0.00239705 -0.000198444 0.00180027)
(-0.00863401 0.00354013 0.00150278)
(-0.0159762 -0.00896597 -0.000439096)
(-0.00518573 -0.00110272 0.000476146)
(-0.00802624 0.00103745 -0.00244846)
(-0.000577951 -0.000847025 0.00132891)
(-0.000651375 -0.000797386 0.0011)
(-0.00424387 -0.00656264 -0.000248651)
(-0.00373635 -0.00525754 -0.000273579)
(-0.00455081 -0.00781204 -0.00387187)
(-0.00579378 0.00294029 -0.0048732)
(-0.00410767 0.00286159 -0.00587929)
(-0.0146037 -0.00820755 -0.000129847)
(-0.0264068 0.000101258 0.000428867)
(-0.010862 0.00929664 -0.00104431)
(-0.00414739 0.000659779 0.000401906)
(-0.000278633 -0.000447214 -0.00107027)
(-0.00190374 -0.00131174 -0.00246977)
(-0.00309252 -0.00298274 0.00308114)
(-0.002231 -0.00157657 0.00175045)
(-0.0200825 -0.00580908 0.000334336)
(-0.0220898 -0.00549104 -0.000173658)
(-0.0176357 0.00910524 -0.00440055)
(-0.00992679 -0.00609953 -0.00170261)
(-0.00676129 -0.00747311 5.0696e-05)
(-0.0143719 -0.00637393 -0.00154963)
(-0.00398651 -0.00547636 -0.00294045)
(-0.00616978 -0.00798506 -0.00253073)
(-0.017938 0.00367988 -0.00302189)
(-0.00185523 -0.000576965 -0.00329447)
(-0.00618313 0.00573001 -0.00100503)
(-0.00222967 5.58726e-06 -0.000448086)
(-0.00247998 0.000578333 0.00252593)
(-0.0216797 0.00434531 -0.000445583)
(-0.010512 -0.00209233 -0.000616703)
(-0.00757883 -0.00196425 0.00110299)
(-0.00287062 -0.000214956 0.0016378)
(-0.012303 -0.00138088 -0.000687642)
(-0.012419 -0.00253988 -0.000638937)
(-0.000494579 0.000764048 -0.000610801)
(-0.00313095 8.00627e-05 0.000173872)
(-0.00318972 0.000143547 0.000576808)
(-0.00259098 0.000220822 0.000347219)
(-0.00403049 8.12028e-05 -0.000540468)
(-0.00826656 -0.000212088 -0.000295549)
(-0.00270262 -0.000144894 -0.000286194)
(-0.0108613 -0.000231257 0.000758633)
(-0.0145212 -4.05086e-05 0.000561199)
(-0.0129054 -0.000406878 0.000510519)
(-0.0110654 -0.000157722 0.00177658)
(-0.0109404 -0.00238016 -0.000751184)
(-0.0112707 -0.000395073 0.00138366)
(-0.0138095 -0.00331427 -0.0015912)
(-0.0116016 -0.00294978 0.000532835)
(-0.0117034 -0.00315403 0.000850076)
(-0.0153847 -0.00584184 0.00211076)
(-0.00541317 -0.00100847 0.000609376)
(-0.00452404 0.000734461 -0.000765324)
(-0.00706198 -0.00178307 0.000910815)
(-0.00701521 -0.000874047 0.00135782)
(-0.0037576 0.000595095 -0.000465623)
(-0.0125165 -0.00301685 0.000487843)
(-0.0103864 0.00254995 -0.000938382)
(-0.010097 0.00205161 -0.00100442)
(-0.0113946 -0.00490945 0.00497115)
(-0.0043883 0.000671807 -0.000861083)
(-0.0105053 -0.00250797 0.00224523)
(-0.00680164 0.000256026 8.13056e-05)
(-0.00855464 0.00155402 1.30223e-05)
(-0.0146686 0.00259222 -0.000276699)
(-0.00463649 8.6953e-05 -0.000140576)
(-0.00588291 0.00049791 9.75275e-07)
(-0.000639667 -0.000763506 0.00214062)
(-0.00240856 -0.000201231 0.00144432)
(-0.000869602 -0.000545708 0.00134891)
(-0.000433228 -0.0010369 0.00254123)
(-0.000480257 -0.000548157 0.00171199)
(-0.000457027 -0.000276944 0.00170012)
(-0.00295126 -0.000144098 0.00170017)
(-0.000616414 -0.000364252 0.00146576)
(-0.000169112 -0.00057724 -0.00303569)
(-0.000406398 -0.00116433 -0.00214587)
(-0.00653523 0.00195453 -0.00244743)
(-0.00102878 0.000718335 -0.000560553)
(-0.00182275 0.000605698 -0.00335989)
(-0.00126346 0.00037892 -0.000428076)
(-0.000831705 0.000486736 -0.00161746)
(-0.00751387 0.000376186 0.00366077)
(-0.0036414 -0.000268962 0.001002)
(-0.00338758 -1.34183e-05 0.00133392)
(-0.00518855 0.000658437 -0.000559087)
(-0.00432658 0.000753152 -0.00231227)
(-0.00245127 5.14773e-05 -0.000296526)
(-0.00291928 -3.77946e-05 8.78407e-05)
(-0.00225192 -0.000411319 0.000425477)
(-0.00298538 8.69436e-06 -0.000192327)
(-0.00276514 -0.00011978 0.00024208)
(-0.00330888 9.51939e-06 0.00123285)
(-0.00232219 -0.000178802 0.000441287)
(-0.00299836 -0.00014507 -0.000461116)
(-0.00277374 -0.000273695 0.000280831)
(-0.00244734 -0.00011583 0.000329615)
(-0.0255171 -0.00883009 0.00388174)
(-0.00439059 -0.00194271 0.000801838)
(-0.0011666 -0.000597691 3.90671e-05)
(-0.00663033 0.00178863 0.00138801)
(-0.0216923 0.000383156 -0.00161423)
(-0.0102803 -0.00751239 0.00189006)
(-0.000554158 -0.000443531 7.26742e-05)
(-0.0046732 0.000552609 -2.23065e-05)
(-0.00700297 0.00174712 0.000865979)
(-0.00411457 0.000213544 -8.16933e-05)
(-0.00580251 0.000363681 0.00274088)
(-0.0031345 -0.00065781 0.00208107)
(-0.00256284 -0.000229551 0.00171064)
(-0.00446323 -0.000171227 0.0011694)
(-0.00222517 2.26444e-05 0.00138072)
(-0.00308146 0.000978416 -0.00160121)
(-0.00577432 0.000802694 -0.000480253)
(-0.00793147 0.00188102 0.000563365)
(-0.00388985 0.000633634 -0.00144826)
(-0.00290291 0.000594955 -0.00153885)
(-0.00309841 0.000663849 -0.00176832)
(-0.00267789 -0.000222517 -0.000891391)
(-0.011283 -0.00245405 -0.00122864)
(-0.00988459 -0.000129237 0.00147088)
(-0.0132949 -0.00316298 -0.00120247)
(-0.0108562 -1.47707e-05 0.00141934)
(-0.00985255 -0.00267788 0.000692925)
(-0.0102755 -0.00420455 0.000960987)
(-0.00915954 0.00136366 -0.000797536)
(-0.0136069 -0.00365304 0.000616648)
(-0.00496896 -0.000251841 0.00111754)
(-0.0103204 -0.0026147 0.000858001)
(-0.011073 -0.00190288 0.00100567)
(-0.0114255 -0.00214915 0.000750784)
(-0.00631492 9.28268e-05 0.000873766)
(-0.0111076 -0.00170101 0.000810725)
(-0.0113912 -0.00224493 0.000861783)
(-0.0036966 4.64734e-05 0.00021985)
(-0.00592692 0.00019388 0.00293808)
(-0.00407226 -0.000145346 0.000938753)
(-0.00317706 -5.23226e-05 0.001017)
(-0.00298188 -0.000100023 0.00122751)
(-0.00274181 -9.63506e-05 0.000976079)
(-0.00952138 -0.00728 -0.00554952)
(-0.0111118 0.00242488 0.000819517)
(-0.0111567 0.00249677 0.000209442)
(-0.00498503 0.00176745 -0.000371703)
(-0.0111529 5.03587e-05 0.00198503)
(-0.000535118 -0.000594759 -0.000468414)
(-0.00059063 6.36344e-05 -0.00111396)
(-0.000417312 -0.00260492 -0.000173309)
(0.000632102 -0.00193035 -0.00256498)
(0.000247272 -0.00485219 -0.000510359)
(0.00031668 -0.000327697 -0.000981121)
(0.00048426 -0.000154368 -0.000684053)
(-0.00161691 -0.000722203 -0.000684798)
(-0.00018935 -8.31718e-05 -0.000790661)
(-0.00650447 0.000249494 -0.00162358)
(-0.00440197 0.000320626 -0.00177099)
(-0.00437448 0.000392014 -0.00221342)
(-0.00383432 0.00016084 -0.00102744)
(-0.00344168 0.000200666 -0.00133772)
(-0.00204974 -0.000385109 0.000240561)
(-0.0025747 -6.7517e-05 0.000235335)
(-0.00381725 3.13495e-05 0.000343061)
(-0.00689402 -0.00102916 0.00127657)
(-0.00282911 -0.000195037 -0.000182878)
(-0.00456779 -0.000358542 0.00113543)
(-0.00346985 -0.000335537 0.00111936)
(-0.00314385 4.65868e-05 0.000974789)
(-0.00342894 -0.000253402 0.000925932)
(-0.00206114 -0.000164439 0.000339808)
(-0.0017987 -0.000217027 0.000357626)
(-0.00226295 -0.000196922 0.000319891)
(-0.00187664 -0.000153588 0.000271041)
(-0.00234463 -0.000128892 0.000468259)
(-0.00241799 -0.00031085 -0.000606759)
(-0.00264615 -0.000178921 3.24704e-05)
(-0.00287101 0.000121094 -0.000125624)
(-0.0020548 -0.000115335 0.000379029)
(-0.00186147 2.20712e-05 0.000382466)
(-0.0018443 -0.000117827 0.000279023)
(-0.00248877 0.000233234 0.000139085)
(-0.00166236 -0.000254714 0.000141468)
(-0.00171555 -0.00015265 6.00819e-05)
(-0.00168917 -1.56793e-05 0.000180537)
(-0.0017019 -0.000121276 7.49676e-05)
(-0.00296401 -0.000180211 -0.000606641)
(-0.00209352 0.000166252 0.00032374)
(-0.00302402 -5.03896e-05 -0.000439584)
(-0.00179454 0.000103435 0.000214484)
(-0.00225562 -0.000261023 0.000147621)
(-0.002348 -0.000112176 0.00019099)
(-0.00391561 5.47654e-05 0.000483033)
(-0.00876701 0.000655437 0.000369123)
(-0.00778569 0.000824167 0.000436649)
(-0.00795426 0.00050824 0.000469863)
(-0.00790442 -0.000107298 -0.000241915)
(-0.00577314 -0.000409507 0.000386605)
(-0.00633466 0.00045286 0.000487183)
(-0.00454496 -0.000503309 0.000262587)
(-0.00794133 -0.00045928 -0.000347703)
(-0.00945609 -0.00154016 0.000108051)
(-0.00569108 -0.000557297 0.000222229)
(-0.00773895 0.00587542 0.00393541)
(-0.0153536 0.00637624 -0.00554163)
(-0.00745873 0.00580192 0.00408734)
(-0.000418475 0.000662198 0.00191073)
(-0.0138298 0.000218294 0.000866236)
(-0.014232 0.000100137 0.000535034)
(-0.00663622 0.00321455 0.00222756)
(-0.0128863 -8.88796e-05 0.000579891)
(-0.0150103 0.000867287 0.000769118)
(-0.0221103 0.00951111 -0.00980801)
(-0.013178 -0.0006957 0.000303623)
(0.000165583 -0.000139641 0.00103469)
(-0.00149289 -0.00040087 0.00013614)
(-0.00120532 -0.0015962 -0.000528943)
(-0.00206885 -0.00136546 -0.00148882)
(-0.0130041 -0.000621013 0.000363833)
(-6.66065e-05 -0.000858241 0.00294875)
(-0.00210498 -0.00164497 -0.00214266)
(-0.00562331 -0.000771622 -0.000161828)
(-0.015945 -0.0031976 0.000131439)
(-0.01598 -0.00240644 0.000245286)
(-0.00490465 -0.000734883 -0.000191194)
(-0.0153573 -0.000944015 -0.000295301)
(-0.00755115 0.0011638 0.0013716)
(-0.00536352 -0.00457711 -0.00019487)
(-0.0177563 -0.000850708 -0.000787634)
(-0.0216985 3.51393e-07 -0.00147586)
(-0.011052 -0.0022584 -0.00367017)
(-0.023339 0.000203138 -0.00176126)
(-0.00601229 -0.00493293 -0.000645513)
(-0.0194343 -0.00116322 -0.000986107)
(-0.0129282 -0.00214546 -0.00351713)
(-0.0239536 -0.00022984 -0.00162484)
(-0.00984498 -0.00118544 0.000309638)
(-0.00594182 -0.00512333 -0.000325503)
(-0.00369212 -0.00293576 -0.00010847)
(-0.0170001 -0.000611598 -0.000426794)
(-0.00752617 -0.00635291 -0.000432983)
(-0.0184355 -0.000942884 -0.000761449)
(-0.0121915 -0.00202193 -0.00401035)
(-0.0111228 -0.00208958 -0.00377935)
(-0.0200901 -0.00287318 -0.00634572)
(-0.0107029 -0.0015842 0.000869878)
(-0.011841 -0.0027529 0.000977558)
(-0.00497222 -0.000587447 0.000682903)
(-0.0110472 -0.00276224 0.00102674)
(-0.00299019 -0.00312373 -0.000500431)
(-0.0220807 -0.00353011 -0.00653184)
(-0.0086617 -0.000852902 0.000754779)
(-0.0104676 -0.002333 0.00108808)
(-0.0118787 -0.00284979 0.000883794)
(-0.00329662 8.79376e-05 0.00056437)
(-0.00294576 0.000324038 0.000262207)
(-0.00473418 0.000856831 -0.000776871)
(-0.00517388 0.000803541 -0.00112716)
(-0.00251507 0.000359987 0.0001492)
(-0.00494024 0.000784616 -0.000979429)
(-0.00327522 0.00019571 0.00040047)
(-0.0112061 -0.00311294 0.000930271)
(-0.00781008 -0.00165703 0.0011735)
(-0.00238582 0.000554387 0.00029217)
(-0.0124262 -0.00328052 0.00106196)
(-0.00784663 -0.00152576 0.00121392)
(-0.00255489 0.000327825 0.000326884)
(-0.00553424 -0.000697407 0.000972139)
(-0.014058 -0.00387245 0.00130316)
(-0.00998352 -0.00241862 0.00125109)
(-0.00910514 -0.000905642 0.00127039)
(-0.0126409 -0.00278269 0.00146284)
(-0.00749487 -0.000345438 0.000911951)
(-0.0122519 -0.00235562 0.00161855)
(-0.00756178 -0.00872157 -0.00105236)
(-0.0143777 0.00166582 -0.00389252)
(-0.00180556 -0.00161131 0.000273335)
(-0.00181008 -0.00144668 0.000364707)
(-0.0018106 -0.00144647 0.00036484)
(-0.00224914 -0.00270859 -0.000302027)
(-0.00239863 -0.0026568 -0.000402289)
(-0.00253817 -0.00301808 -0.000262718)
(-0.00281709 -0.00307938 -0.000736539)
(-0.00332119 -0.00373933 -0.000433489)
(-0.00332213 -0.00373891 -0.000433669)
(-0.00301855 -0.00332406 -0.000747847)
(-0.0103144 -0.00827024 -0.00519731)
(-0.0012034 -0.000864091 0.000224202)
(-0.00151682 -0.0012138 -0.00015058)
(-0.00177441 -0.00138612 0.000250978)
(-0.00220475 -0.00168385 0.000267576)
(-0.0106789 -0.00491949 -0.0023078)
(-0.000879558 -0.000738237 0.000152327)
(-0.00162061 -0.00113162 0.000252317)
(-0.000682685 -0.000544416 7.42779e-05)
(-0.00139243 -0.00112196 0.000175748)
(-0.011326 -0.00706645 -0.00305552)
(-0.00142005 -0.00131987 0.000162088)
(-0.00194865 -0.00135074 0.000333947)
(-0.011074 -0.00314909 0.00331382)
(-0.00844769 -0.0027231 0.00246338)
(-0.00909193 -0.00286039 0.00269407)
(-0.00206345 -0.00210101 -0.000309429)
(-0.00240561 -0.00254969 -2.23213e-05)
(-0.00184422 -0.00200603 2.32891e-05)
(-0.00813522 -0.00605654 0.0045482)
(-0.00554138 -0.00222893 -0.00159702)
(-0.00957884 -0.00320349 -0.00379499)
(-0.0117056 -0.00749639 -0.00313846)
(-0.00112823 -0.00172656 0.000114388)
(-0.00108312 -0.00211006 0.000455171)
(-0.011209 0.00192261 0.000449492)
(-0.0132722 0.00240262 0.00065011)
(-0.0127642 0.00215442 0.00260807)
(-0.0114172 0.00327061 0.00319289)
(-0.00863097 0.00141664 0.00165402)
(-0.00365674 0.000297721 0.000636424)
(-0.00464999 0.000350981 0.000970944)
(-0.00543644 0.000492758 0.00062429)
(-0.00815475 0.00110035 0.00163184)
(-0.00430657 0.000412826 0.00014531)
(-0.00963144 0.000480911 0.00253934)
(-0.00309911 6.38938e-05 0.000453658)
(-0.00376088 0.000204792 0.000223868)
(-0.00487803 0.00029897 0.000344229)
(-0.00388426 0.000207512 5.69585e-05)
(-0.0047321 0.000258826 0.00234248)
(-0.0100941 0.00130908 0.0087221)
(-0.00414667 -0.00104514 0.00525027)
(-0.00289925 -0.0010236 0.00390779)
(-0.000738393 -0.000262331 0.00112845)
(-0.00412783 -0.00101647 0.00256115)
(-0.00193183 -0.000504812 0.00231261)
(-0.000755034 -0.000204599 0.00112566)
(-0.00102872 -0.00112359 0.00056143)
(-0.000752516 -0.00174282 0.00105832)
(-0.000369886 -0.00234928 -4.48636e-05)
(-0.00100093 -0.00116462 7.2487e-05)
(-0.000672273 -0.00122697 0.00103612)
(-0.000913551 -0.0014008 0.000337029)
(-0.00073668 -0.00116775 0.000977105)
(-0.0013757 -0.000771573 0.000340198)
(6.0304e-05 -0.00393691 -0.000381139)
(-0.000733193 -0.00177696 0.00107805)
(-0.00152814 -0.000819012 0.000443569)
(-6.96136e-05 -0.000667365 0.000117354)
(-0.000427142 -0.000753128 0.00193185)
(0.00109321 -0.000622551 0.000211935)
(-2.91817e-05 -0.000198353 0.00117636)
(-0.000253906 -0.000853364 -0.000333632)
(-0.00156138 -0.00081453 0.000293381)
(0.000412585 -0.000436356 0.00155163)
(-0.000505282 -0.000600937 0.00180317)
(-0.000571718 -0.000309806 0.00172494)
(-0.00226716 -0.000225321 0.00123004)
(-0.00743562 7.27348e-05 0.00169836)
(-0.00314175 -0.000626257 0.00222043)
(-0.00155711 5.10387e-05 0.00146851)
(0.000744001 -0.000159669 0.000788567)
(-0.000324156 0.000397605 0.000379953)
(-0.0241575 -0.00401945 -0.00403436)
(-0.0242323 -0.00572132 0.00351682)
(-0.00187813 -0.0048435 -0.00529489)
(-0.00223686 -0.00521629 -0.00479975)
(-0.0122646 -0.000714465 -0.000244614)
(-0.0119948 -0.00355759 -0.00137806)
(-0.0132604 -0.000581097 0.000140004)
(-0.0106517 -0.0173272 0.00197674)
(-0.0138554 -0.0010119 0.000314805)
(-0.0124819 -0.00439067 -0.000786575)
(-0.0127866 -0.000406255 -0.000191504)
(-0.00676168 -0.00329522 -0.00306291)
(-0.00304628 0.00149017 -0.00120176)
(-0.00190932 0.00104508 -0.00144136)
(-0.00131248 -0.00104909 -0.00315779)
(-0.00121701 -0.00101669 -0.00417573)
(-0.00311351 0.00164563 -0.00174681)
(-0.00301021 0.00177284 -0.00171345)
(-0.00171006 0.00121396 -0.0016202)
(-0.00101701 0.000479044 -0.000668298)
(-0.000702879 8.73212e-05 -0.000744431)
(-0.0112225 0.00275386 9.59646e-05)
(-0.00833662 0.00211145 0.00104041)
(-0.01298 0.00110626 0.00260862)
(-0.0126178 0.00481539 -0.00237847)
(-0.0118414 0.00403363 -0.00198899)
(-0.0162311 0.00546259 -0.0033638)
(-0.0110734 0.00195973 -0.00318455)
(-0.00464489 0.000470371 -0.000600778)
(-0.00487944 0.00080827 -0.000909147)
(-0.00484771 0.000507037 -0.000746552)
(-0.000765657 -0.00140808 -0.00359363)
(-0.000619093 -0.00130229 -0.0042854)
(-0.000827213 -0.00104789 -0.000305724)
(8.99337e-05 -0.000688667 0.000309156)
(-0.000897671 -0.000456762 2.11278e-07)
(-0.00115627 -0.000233839 6.86072e-05)
(-0.0025987 -0.00110278 -0.000494623)
(-0.000674204 -0.000515064 8.93746e-05)
(-0.00133675 -0.0005622 0.000331036)
(-0.000734607 -0.00044512 0.000289385)
(-0.00040284 0.00105399 -0.00112631)
(-0.000378979 0.000829826 -0.00189987)
(-0.00154623 0.000311288 -0.00195726)
(0.00095237 0.000353829 -0.000484267)
(-0.000229819 0.000277974 3.55497e-05)
(-3.20829e-05 -0.000576854 0.000405298)
(-0.000402204 0.000795684 -0.000870508)
(-0.00362854 0.000403891 -0.00102624)
(-0.00559754 0.000746983 -0.00202374)
(-0.00398701 0.000612469 -0.00153797)
(-0.0042445 0.000413817 -0.00113474)
(-0.00478976 0.000214411 -0.00106675)
(-0.00447728 0.000314197 -0.00105161)
(-0.0033793 0.000240595 -0.000402815)
(-0.00271159 0.000429898 -0.00204646)
(-0.00309889 0.000623827 -0.00227769)
(-0.00616572 5.01479e-05 -0.00158417)
(-0.00424662 -5.55971e-05 -0.000962533)
(-0.0103086 0.00205245 0.0042311)
(-0.00863851 0.0010678 0.00359548)
(-0.00278952 -5.70565e-06 0.00135125)
(-0.00229898 -0.000196266 0.00119449)
(-0.00324156 -0.000272311 0.00162144)
(-0.00199899 -4.79924e-05 0.00104723)
(-0.0247682 0.00639981 0.00614083)
(-0.0253277 0.00584266 0.00340494)
(-0.00863087 -0.00119225 -0.000624529)
(-0.0113423 -0.00250369 -0.000676549)
(-0.00899266 -0.00174423 -0.000693111)
(-0.00767984 0.000967625 0.000655943)
(-0.00377521 0.000156141 0.000654949)
(-0.0035951 0.000204051 0.000628639)
(-0.00327421 -3.13096e-05 -4.93747e-06)
(-0.00230568 -1.80575e-05 0.000154991)
(-0.0125696 0.00508194 0.00100455)
(-0.00343986 -0.00243934 0.000859777)
(-0.00343952 -0.00244186 0.000860575)
(-0.00815736 -0.00641575 0.00119453)
(-0.0108161 0.0029691 0.00480275)
(-0.010874 0.000402689 0.00631748)
(-0.00673088 0.000690451 0.00267351)
(-0.00224659 -0.000295976 0.00127596)
(-0.00296726 -0.000108523 0.00157182)
(-0.0124766 -0.0024504 -0.000641071)
(-0.00506842 -0.00060709 -0.000426283)
(-0.00618069 -0.000534622 -0.000346851)
(-0.00957492 -0.00649993 0.00240954)
(-0.00890765 0.00165627 0.00308413)
(-0.00256921 0.000157463 0.000176302)
(-0.00627031 0.000230566 0.00109346)
(-0.0227629 -0.00758702 0.00320357)
(-0.0023241 -0.00187148 0.000674371)
(-0.00583911 0.00197795 0.00226815)
(-0.00980273 -0.00053063 -0.000324789)
(-0.00270874 -0.00307598 -0.000447583)
(-0.00593301 -0.00117197 0.000957103)
(-0.00946965 -0.00269036 0.00113937)
(-0.00818574 -0.00206416 0.00107202)
(-0.00504302 -0.000591952 0.000445692)
(-0.00540293 -0.000694836 0.000502535)
(-0.00206997 0.000265527 0.000108179)
(-0.00294045 -0.000174015 0.001636)
(-0.00564523 -0.00352305 0.00338718)
(-0.0127361 -0.00146658 -0.000914895)
(-0.01173 -0.000934959 -0.000445382)
(-0.0124925 -0.00105449 -0.000798494)
(-0.00719066 0.000766156 -0.000416389)
(-0.0144964 -0.00320347 -0.00553419)
(-0.00871201 -0.00147256 -0.000810111)
(-0.0103349 -0.00597242 0.00312854)
(-0.00983879 -0.00358181 -0.00233182)
(-0.0136895 -0.00463188 -0.00170679)
(-4.62637e-07 -0.00220729 -0.000450826)
(-0.0119315 -0.00621888 -0.00379194)
(-0.00281151 -0.00220033 -0.00199298)
(-0.00270155 -0.00219409 -0.00204499)
(-0.000579306 0.000362905 -5.78186e-05)
(-0.0010315 0.000142601 -0.000625748)
(0.000518269 0.000701712 -0.0013617)
(-3.80149e-05 0.000295818 -0.0011608)
(-0.00524278 0.000640473 -0.00170976)
(-0.00302641 0.000321072 -0.00105853)
(-0.00470228 0.000430268 -0.00134146)
(-0.00400741 0.000467053 -0.0013296)
(-0.00270088 0.000469857 -0.00110692)
(-0.003143 0.000213498 -0.00121795)
(-0.00522781 0.000350262 0.000899158)
(-0.00837079 0.000535421 0.00147018)
(-0.00277243 0.000173559 0.00054084)
(-0.00666955 0.000667235 0.00139466)
(-0.00313035 7.88697e-06 8.86096e-05)
(-0.00376582 0.000406654 0.000553047)
(-0.00357295 0.000266611 0.000319019)
(-0.00256875 -0.000396983 0.000330368)
(-0.00229883 -0.00021782 8.36565e-05)
(-0.00638285 0.000455639 0.00154032)
(-0.00661948 0.000831823 0.00150289)
(-0.00361814 0.000283099 0.000768917)
(-0.00680054 0.000197292 0.00161066)
(-0.00358342 0.000409023 0.000730489)
(-0.003091 0.000151988 6.29866e-05)
(-0.0035733 0.000310357 0.000362138)
(-0.00865623 -9.03861e-05 -0.000113387)
(-0.00497803 0.000372484 -7.2814e-05)
(-0.0090198 0.000106867 -8.8727e-05)
(-0.00824504 -0.00020095 -0.000255768)
(-0.00885315 -4.56445e-05 -2.27135e-05)
(-0.00351483 2.74638e-06 4.79415e-05)
(-0.00266019 -0.000349588 -0.000222496)
(-0.00330565 -0.000276461 8.55107e-05)
(-0.00894727 -0.000801319 -8.62718e-05)
(-0.0105271 -0.000724214 0.00172178)
(-0.00907805 -0.000569003 0.00190198)
(-0.0110015 -0.000633558 0.00168362)
(-0.0120198 0.000758706 0.000721257)
(-0.0112414 0.00184585 -0.000863644)
(-0.0156205 0.00261116 -8.58105e-05)
(-0.00972226 -0.000872781 0.00197778)
(-0.0132631 -0.000460002 0.000242416)
(-0.00936522 -0.00048682 0.00184725)
(-0.0112381 -0.000400548 0.000707579)
(-0.00975248 0.000145114 0.0019863)
(-0.0067462 -0.00120135 -0.000364928)
(-0.0112558 -0.00253897 -0.000206289)
(-0.0100665 -0.00213951 -1.23124e-05)
(-0.0148066 -0.00073059 0.000534089)
(-0.0162281 -0.00168405 0.000195581)
(-0.00663039 -0.00436314 0.00168567)
(-0.0113837 -0.000779793 0.00043029)
(-0.0127515 0.000310124 0.000799046)
(-0.019275 0.00356535 -0.0055724)
(-0.0107532 -0.00258937 0.00025838)
(-0.0117918 -0.00277228 0.000426439)
(-0.00758074 -0.00568822 0.000794183)
(-0.00953454 -0.00372445 -0.00488708)
(-0.0107687 -0.00531408 -0.00440122)
(-0.0390865 -0.00440461 -0.00195509)
(-0.0218018 -0.00302642 -0.00206666)
(-0.0145848 -0.00207172 -0.00414513)
(-0.012546 -0.00291878 0.000534861)
(-0.00952907 -0.00264042 0.00091973)
(-0.0135281 -0.00375758 0.000724425)
(-0.0064241 -0.00611564 -0.00231555)
(-0.00711006 -0.00490769 0.00299275)
(-0.00396752 -0.000253458 0.000425533)
(-0.00415515 -0.000227899 0.000300319)
(-0.00325223 0.000246322 0.000153651)
(-0.00341476 0.000683778 -0.000171133)
(-0.00474652 0.000781847 -0.000699576)
(-0.00540617 -0.000856342 0.000592737)
(-0.00876618 -0.00248864 0.00105028)
(-0.00718885 -0.00173241 0.000847021)
(-0.00387532 7.64988e-05 0.000945105)
(-0.00771868 -0.00187287 0.00109513)
(-0.00596771 -0.0010285 0.000957923)
(-0.00313025 0.000580659 5.1636e-05)
(-0.00971625 0.00180153 0.000264671)
(-0.00211072 0.000377283 0.000155082)
(-0.011242 -0.00266539 0.00167928)
(-0.0127696 -0.00293207 0.00226557)
(-0.0142634 -0.00398694 0.00126259)
(-0.0103661 -0.00198064 0.000501087)
(-0.0151357 -0.00412737 0.00109295)
(-0.0142805 -0.00378874 0.00255753)
(-0.0051803 -0.00522671 -0.000754257)
(-0.00884856 0.00211649 -0.000312738)
(-0.00779415 0.00161263 -0.000380145)
(-0.0119009 0.00112481 -1.83201e-06)
(-0.00891594 -0.00264054 0.00214365)
(-0.00550784 -0.00404817 0.00120749)
(-0.014324 -0.00293927 0.00175819)
(-0.014395 -0.00829666 0.00563901)
(-0.00863924 0.00240647 -0.000568532)
(-0.00931877 0.00252995 -0.00145618)
(-0.0131622 -0.00133052 -0.004297)
(-0.00532665 -0.0056659 -0.000934458)
(-0.00638665 -0.00478615 -0.00262245)
(-0.00637767 -0.00595254 0.000844105)
(-0.00268348 0.000362802 -0.000386769)
(-0.00468859 0.000675782 0.00120781)
(-0.00695593 0.000132827 -0.00170873)
(-0.00750879 -0.00136721 -0.00236417)
(-0.0143495 -0.00837184 -0.0045301)
(-0.00922487 -0.00247582 0.00111952)
(-0.0122095 -0.0041207 0.0024214)
(-0.0112864 -0.00285786 0.00228869)
(-0.0154394 -0.00450545 0.0052304)
(-0.00612593 -0.00623192 0.000913241)
(-0.00601064 -0.0057678 -0.00130275)
(-0.00697678 -0.00793158 -0.000276011)
(-0.00870283 -0.00538007 0.00434568)
(-0.00886972 -0.00973928 0.000226828)
(-0.00204563 0.000318927 0.000108863)
(-0.00212105 0.000156212 -0.000563508)
(-0.00259493 0.000163157 -0.000977604)
(-0.00201085 0.000254889 -0.000226941)
(-0.0113008 -0.00258337 0.000633933)
(-0.00493664 -0.000159558 0.000616647)
(-0.00622515 -0.00524164 0.00026771)
(-0.00838011 -0.0054495 -0.000837112)
(-0.0064452 -0.00654201 -0.0012111)
(-0.00832599 -0.00943917 -0.000417882)
(-0.0066384 -0.00483919 0.00275057)
(-0.00911498 -0.0101632 0.00112174)
(-0.00816896 0.000891566 9.62166e-05)
(-0.0114975 0.00197412 0.000340981)
(-0.0033401 0.000450882 -0.000283447)
(-0.0127592 0.00221388 0.000639771)
(-0.0163365 0.00290134 0.000757061)
(-0.00352111 7.4375e-05 0.000595516)
(-0.00327825 3.10464e-05 0.00052193)
(-0.00172059 9.28053e-05 -0.00174264)
(-0.0072817 -0.000411821 0.00632787)
(-0.00462132 0.000554723 -0.00031669)
(-0.00787453 0.00098773 -0.000287614)
(-0.0102054 0.000784923 6.17264e-05)
(-0.00601603 0.000774032 9.09554e-05)
(-0.00395147 0.000220744 -0.000210919)
(-0.00305923 -0.000199725 0.000310507)
(-0.00295733 -0.000127445 0.000396449)
(-0.00501697 0.000622996 -4.34713e-05)
(-0.00446644 -0.00116906 0.00541907)
(-0.00358104 0.000170328 0.00182234)
(-0.0025749 -8.71182e-05 0.00147556)
(-0.00321962 -0.000146398 0.00151991)
(-0.00516641 -0.00151998 0.00325619)
(-0.00149655 -0.000394555 0.00168502)
(-0.000869959 -0.000427157 0.00114982)
(-0.00244599 -0.00021818 0.00110756)
(-0.00598644 -0.000449661 0.00296349)
(-0.00322542 -0.000258963 0.00139695)
(-0.00323248 -0.000297783 0.00156626)
(-0.000837784 -0.000392572 0.0013438)
(-0.00119318 0.000305859 0.00178928)
(-0.00261497 -0.000969887 0.00397169)
(-0.000834981 -9.11286e-05 0.000951384)
(-0.000888109 -0.000525773 0.00097008)
(-0.000438801 -0.000932785 0.00163831)
(-0.00981785 -0.00607529 0.00308546)
(-0.000353583 -0.000926518 -0.00025735)
(-0.000181441 0.000664858 0.00031457)
(-0.000332328 -0.000724037 0.00070243)
(-0.000524665 -0.00214008 0.00324497)
(-0.00119594 -0.00608477 0.00806551)
(-0.00132514 -0.000441566 0.000681739)
(-0.0018833 -0.00044592 0.000637971)
(-0.000714596 1.06193e-05 0.000212079)
(-0.00136444 -0.000140183 0.000638936)
(-0.000349643 0.00156438 -0.00095446)
(-0.000645312 -0.00206411 -0.00211036)
(-0.00053642 -0.000493234 0.00158107)
(-0.000972388 -0.000682198 0.00153443)
(-0.000914172 0.000510461 0.00469969)
(-0.00225481 -0.000223752 0.00133053)
(-0.00136743 -3.46914e-05 0.00147477)
(-0.00140079 6.57527e-05 0.00154747)
(-0.000632534 2.72739e-06 0.000441597)
(-0.000699526 -2.51786e-05 0.00132574)
(-0.000520744 -0.000235383 0.00239071)
(-0.00374004 -0.000372242 -0.00546579)
(-0.0053201 3.0906e-06 -0.000327063)
(-0.00766435 -0.00132676 -0.000501041)
(-0.00590084 -0.000785658 -0.000515867)
(-0.0121617 0.00461716 0.00206759)
(-0.0038943 0.00223658 -0.000548921)
(-0.010141 -0.00386654 -0.00280654)
(-0.00636517 -0.00565416 -0.00188644)
(-0.00859791 -0.00330842 -0.00254655)
(-0.00127521 -2.95064e-05 -0.00295573)
(-3.66348e-05 0.000138055 -0.00408726)
(-0.00410064 0.00301064 -0.00167777)
(-0.0155696 0.00545894 -0.00667194)
(-0.00581443 0.00187157 -0.00235646)
(-0.0162345 0.00624189 -0.00566572)
(-0.00146163 -0.000209074 -0.00197278)
(-0.000482642 -0.00138367 -0.00192407)
(-0.00877374 0.000938188 -0.000817064)
(-0.0044671 0.00127539 -0.000583048)
(-0.0096352 0.0026604 -0.0025267)
(-0.0124331 0.00329561 -0.00316282)
(-0.0207878 0.00488799 -0.00129523)
(-0.00929163 0.00217206 -0.000560054)
(-0.0152552 0.0032939 -0.00121052)
(-0.00799938 0.00268308 -0.00316779)
(-0.00936802 0.00219684 -0.00300629)
(-0.00110657 9.05466e-05 -8.33555e-06)
(-0.00112633 8.73439e-05 0.000211903)
(-0.00142299 6.46123e-05 0.000159567)
(0.000864533 -0.00045482 -0.000455661)
(0.000933641 -0.000447129 -0.000508031)
(0.00083775 -0.000183769 -0.000450086)
(-0.00167983 -9.48815e-05 -0.000485946)
(-0.000950211 0.00062181 -0.000544955)
(-0.00168973 -0.000134033 -0.000398277)
(-0.00162044 0.000162636 -0.000410393)
(-0.000897522 -0.000286284 -0.000259876)
(-0.00130918 -5.79754e-05 -0.0017696)
(-0.000606876 2.60694e-05 -8.48801e-05)
(0.00060964 -0.00147775 0.000349446)
(-0.00257651 1.486e-05 -3.32657e-05)
(-0.00155548 0.00035759 -0.000328764)
(-0.00213456 2.01414e-06 -3.2658e-05)
(-0.00474622 0.000607947 -0.00113912)
(-0.00592839 0.00059394 -0.00173964)
(-0.00537844 0.00127767 -0.00242637)
(-0.00342707 0.000264737 -0.00108031)
(-0.00347815 0.000224006 -0.000754743)
(-0.00363213 0.000250945 -0.000903197)
(-0.00296711 0.000344956 -0.000846066)
(-0.00560972 0.000326273 -0.00119878)
(-0.00216529 0.000884011 -0.00199512)
(-0.00173755 0.000737208 -0.00157044)
(-0.00307314 0.000203298 -0.000783558)
(-0.00654603 0.000511978 -0.00168566)
(-0.00330258 0.000255812 -0.000694171)
(-0.012987 0.00267661 0.00532527)
(-0.00862848 0.000705845 0.00390016)
(-0.00313531 -0.000302466 0.00104733)
(-0.00337328 -0.000118296 0.000921274)
(-0.00301451 -0.000289798 0.0014262)
(-0.00212975 -0.000200615 0.00107919)
(-0.0032701 4.48677e-05 0.0014057)
(-0.00348301 -0.00032127 0.00105661)
(-0.0238767 -0.00619722 0.00354956)
(-0.0172523 0.00389494 0.00234964)
(-0.00738631 -0.000302936 -0.00108688)
(-0.0101241 -0.00129196 -0.00177511)
(-0.0119055 -0.0034395 -0.00170408)
(-0.00796464 -0.00144399 -0.00159284)
(-0.00594812 -0.0002946 0.000194317)
(-0.0059038 -0.000880183 -0.000373985)
(-0.00592894 -0.000394998 -0.000167954)
(-0.00827721 -0.00131016 -0.000497488)
(-0.00309921 -1.76164e-05 0.000115722)
(-0.00294819 -3.86808e-06 0.000210509)
(-0.00288516 -4.51325e-05 -0.000493039)
(-0.0037031 -0.000382359 0.000274944)
(-0.00312773 -3.20963e-05 -0.000274274)
(-0.00382192 -1.33103e-05 0.000268339)
(-0.0072994 0.00135715 0.00287979)
(-0.00912116 0.00136079 0.00382564)
(-0.00913013 0.00136423 0.00383672)
(-0.00913025 0.00136427 0.00383682)
(-0.00912641 0.00136297 0.00383272)
(-0.00254305 -0.000435316 0.000613567)
(-0.00266285 -0.000382142 5.04628e-05)
(-0.00305869 -1.30679e-05 0.00021214)
(-0.003078 -0.000347779 -0.000164791)
(-0.00298697 -0.000243439 -1.41177e-06)
(-0.00284713 -0.000434437 0.00024698)
(-0.00310813 -0.000163189 0.0010832)